<?xml version="1.0" encoding="UTF-8"?>

<!-- generated on 2022-02-06 23:36:29 by Eclipse SUMO sumo Version 1.10.0
<configuration xmlns:xsi="http://www.w3.org/2001/XMLSchema-instance" xsi:noNamespaceSchemaLocation="http://sumo.dlr.de/xsd/sumoConfiguration.xsd">

    <input>
        <net-file value="../2x3net.net.xml"/>
        <route-files value="../1363.74757870179062x3Routes.xml"/>
        <additional-files value="../additionals.xml"/>
    </input>

    <output>
        <tripinfo-output value="../1363.7475787017906tripinfo.xml"/>
        <statistic-output value="../1363.7475787017906statistics.xml"/>
    </output>

    <report>
        <no-step-log value="true"/>
    </report>

    <traci_server>
        <remote-port value="55888"/>
    </traci_server>

</configuration>
-->

<tripinfos xmlns:xsi="http://www.w3.org/2001/XMLSchema-instance" xsi:noNamespaceSchemaLocation="http://sumo.dlr.de/xsd/tripinfo_file.xsd">
    <tripinfo id="2.0" depart="21.00" departLane="N2A2_0" departPos="5.10" departSpeed="0.00" departDelay="0.00" arrival="184.00" arrivalLane="B2S2_0" arrivalPos="492.80" arrivalSpeed="9.18" duration="163.00" routeLength="1494.90" waitingTime="0.00" waitingCount="0" stopTime="0.00" timeLoss="13.02" rerouteNo="0" devices="tripinfo_2.0" vType="paperVehicle" speedFactor="1.09" vaporized=""/>
    <tripinfo id="1.0" depart="23.00" departLane="N1A1_0" departPos="5.10" departSpeed="0.00" departDelay="8.00" arrival="186.00" arrivalLane="B1S1_0" arrivalPos="492.80" arrivalSpeed="9.23" duration="163.00" routeLength="1494.90" waitingTime="0.00" waitingCount="0" stopTime="0.00" timeLoss="12.72" rerouteNo="0" devices="tripinfo_1.0" vType="paperVehicle" speedFactor="0.89" vaporized=""/>
    <tripinfo id="1.1" depart="41.00" departLane="N1A1_0" departPos="5.10" departSpeed="0.00" departDelay="16.00" arrival="204.00" arrivalLane="B1S1_0" arrivalPos="492.80" arrivalSpeed="8.82" duration="163.00" routeLength="1494.90" waitingTime="0.00" waitingCount="0" stopTime="0.00" timeLoss="13.24" rerouteNo="0" devices="tripinfo_1.1" vType="paperVehicle" speedFactor="0.99" vaporized=""/>
    <tripinfo id="3.0" depart="56.00" departLane="N3A3_0" departPos="5.10" departSpeed="0.00" departDelay="0.00" arrival="217.00" arrivalLane="B3S3_0" arrivalPos="492.80" arrivalSpeed="9.78" duration="161.00" routeLength="1494.90" waitingTime="0.00" waitingCount="0" stopTime="0.00" timeLoss="11.40" rerouteNo="0" devices="tripinfo_3.0" vType="paperVehicle" speedFactor="0.93" vaporized=""/>
    <tripinfo id="3.1" depart="59.00" departLane="N3A3_0" departPos="5.10" departSpeed="0.00" departDelay="0.00" arrival="221.00" arrivalLane="B3S3_0" arrivalPos="492.80" arrivalSpeed="9.29" duration="162.00" routeLength="1494.90" waitingTime="0.00" waitingCount="0" stopTime="0.00" timeLoss="11.88" rerouteNo="0" devices="tripinfo_3.1" vType="paperVehicle" speedFactor="1.01" vaporized=""/>
    <tripinfo id="3.2" depart="68.00" departLane="N3A3_0" departPos="5.10" departSpeed="0.00" departDelay="0.00" arrival="229.00" arrivalLane="B3S3_0" arrivalPos="492.80" arrivalSpeed="9.98" duration="161.00" routeLength="1494.90" waitingTime="0.00" waitingCount="0" stopTime="0.00" timeLoss="10.97" rerouteNo="0" devices="tripinfo_3.2" vType="paperVehicle" speedFactor="0.90" vaporized=""/>
    <tripinfo id="3.3" depart="87.00" departLane="N3A3_0" departPos="5.10" departSpeed="0.00" departDelay="0.00" arrival="250.00" arrivalLane="B3S3_0" arrivalPos="492.80" arrivalSpeed="9.08" duration="163.00" routeLength="1494.90" waitingTime="0.00" waitingCount="0" stopTime="0.00" timeLoss="13.16" rerouteNo="0" devices="tripinfo_3.3" vType="paperVehicle" speedFactor="1.09" vaporized=""/>
    <tripinfo id="3.4" depart="99.00" departLane="N3A3_0" departPos="5.10" departSpeed="0.00" departDelay="0.00" arrival="262.00" arrivalLane="B3S3_0" arrivalPos="492.80" arrivalSpeed="9.70" duration="163.00" routeLength="1494.90" waitingTime="0.00" waitingCount="0" stopTime="0.00" timeLoss="13.44" rerouteNo="0" devices="tripinfo_3.4" vType="paperVehicle" speedFactor="0.85" vaporized=""/>
    <tripinfo id="6.0" depart="2.00" departLane="N1A1_0" departPos="5.10" departSpeed="0.00" departDelay="0.00" arrival="274.00" arrivalLane="B3E2_0" arrivalPos="496.00" arrivalSpeed="9.69" duration="272.00" routeLength="2495.93" waitingTime="0.00" waitingCount="0" stopTime="0.00" timeLoss="20.87" rerouteNo="0" devices="tripinfo_6.0" vType="paperVehicle" speedFactor="0.94" vaporized=""/>
    <tripinfo id="6.1" depart="8.00" departLane="N1A1_0" departPos="5.10" departSpeed="0.00" departDelay="0.00" arrival="278.00" arrivalLane="B3E2_0" arrivalPos="496.00" arrivalSpeed="9.19" duration="270.00" routeLength="2495.93" waitingTime="0.00" waitingCount="0" stopTime="0.00" timeLoss="19.47" rerouteNo="0" devices="tripinfo_6.1" vType="paperVehicle" speedFactor="1.01" vaporized=""/>
    <tripinfo id="6.2" depart="11.00" departLane="N1A1_0" departPos="5.10" departSpeed="0.00" departDelay="1.00" arrival="281.00" arrivalLane="B3E2_0" arrivalPos="496.00" arrivalSpeed="9.38" duration="270.00" routeLength="2495.93" waitingTime="0.00" waitingCount="0" stopTime="0.00" timeLoss="19.61" rerouteNo="0" devices="tripinfo_6.2" vType="paperVehicle" speedFactor="1.08" vaporized=""/>
    <tripinfo id="6.3" depart="14.00" departLane="N1A1_0" departPos="5.10" departSpeed="0.00" departDelay="2.00" arrival="284.00" arrivalLane="B3E2_0" arrivalPos="496.00" arrivalSpeed="9.08" duration="270.00" routeLength="2495.93" waitingTime="0.00" waitingCount="0" stopTime="0.00" timeLoss="20.10" rerouteNo="0" devices="tripinfo_6.3" vType="paperVehicle" speedFactor="1.03" vaporized=""/>
    <tripinfo id="1.2" depart="83.00" departLane="N1A1_0" departPos="5.10" departSpeed="0.00" departDelay="25.00" arrival="288.00" arrivalLane="B1S1_0" arrivalPos="492.80" arrivalSpeed="9.78" duration="205.00" routeLength="1494.90" waitingTime="38.00" waitingCount="1" stopTime="0.00" timeLoss="55.01" rerouteNo="0" devices="tripinfo_1.2" vType="paperVehicle" speedFactor="1.15" vaporized=""/>
    <tripinfo id="6.4" depart="17.00" departLane="N1A1_0" departPos="5.10" departSpeed="0.00" departDelay="4.00" arrival="289.00" arrivalLane="B3E2_0" arrivalPos="496.00" arrivalSpeed="9.68" duration="272.00" routeLength="2495.93" waitingTime="0.00" waitingCount="0" stopTime="0.00" timeLoss="20.77" rerouteNo="0" devices="tripinfo_6.4" vType="paperVehicle" speedFactor="0.83" vaporized=""/>
    <tripinfo id="6.5" depart="20.00" departLane="N1A1_0" departPos="5.10" departSpeed="0.00" departDelay="6.00" arrival="291.00" arrivalLane="B3E2_0" arrivalPos="496.00" arrivalSpeed="9.18" duration="271.00" routeLength="2495.93" waitingTime="0.00" waitingCount="0" stopTime="0.00" timeLoss="20.32" rerouteNo="0" devices="tripinfo_6.5" vType="paperVehicle" speedFactor="1.05" vaporized=""/>
    <tripinfo id="6.6" depart="26.00" departLane="N1A1_0" departPos="5.10" departSpeed="0.00" departDelay="11.00" arrival="298.00" arrivalLane="B3E2_0" arrivalPos="496.00" arrivalSpeed="8.94" duration="272.00" routeLength="2495.93" waitingTime="0.00" waitingCount="0" stopTime="0.00" timeLoss="21.38" rerouteNo="0" devices="tripinfo_6.6" vType="paperVehicle" speedFactor="0.94" vaporized=""/>
    <tripinfo id="6.7" depart="29.00" departLane="N1A1_0" departPos="5.10" departSpeed="0.00" departDelay="10.00" arrival="300.00" arrivalLane="B3E2_0" arrivalPos="496.00" arrivalSpeed="9.63" duration="271.00" routeLength="2495.93" waitingTime="0.00" waitingCount="0" stopTime="0.00" timeLoss="20.46" rerouteNo="0" devices="tripinfo_6.7" vType="paperVehicle" speedFactor="0.86" vaporized=""/>
    <tripinfo id="6.8" depart="32.00" departLane="N1A1_0" departPos="5.10" departSpeed="0.00" departDelay="11.00" arrival="303.00" arrivalLane="B3E2_0" arrivalPos="496.00" arrivalSpeed="9.06" duration="271.00" routeLength="2495.93" waitingTime="0.00" waitingCount="0" stopTime="0.00" timeLoss="20.82" rerouteNo="0" devices="tripinfo_6.8" vType="paperVehicle" speedFactor="1.03" vaporized=""/>
    <tripinfo id="4.0" depart="2.00" departLane="W1A1_0" departPos="5.10" departSpeed="0.00" departDelay="0.00" arrival="304.00" arrivalLane="A3E1_0" arrivalPos="496.00" arrivalSpeed="8.84" duration="302.00" routeLength="1994.90" waitingTime="83.00" waitingCount="1" stopTime="0.00" timeLoss="101.76" rerouteNo="0" devices="tripinfo_4.0" vType="paperVehicle" speedFactor="1.06" vaporized=""/>
    <tripinfo id="6.9" depart="35.00" departLane="N1A1_0" departPos="5.10" departSpeed="0.00" departDelay="13.00" arrival="306.00" arrivalLane="B3E2_0" arrivalPos="496.00" arrivalSpeed="9.06" duration="271.00" routeLength="2495.93" waitingTime="0.00" waitingCount="0" stopTime="0.00" timeLoss="20.52" rerouteNo="0" devices="tripinfo_6.9" vType="paperVehicle" speedFactor="1.05" vaporized=""/>
    <tripinfo id="4.1" depart="26.00" departLane="W1A1_0" departPos="5.10" departSpeed="0.00" departDelay="0.00" arrival="306.00" arrivalLane="A3E1_0" arrivalPos="496.00" arrivalSpeed="9.92" duration="280.00" routeLength="1994.90" waitingTime="60.00" waitingCount="1" stopTime="0.00" timeLoss="80.35" rerouteNo="0" devices="tripinfo_4.1" vType="paperVehicle" speedFactor="0.93" vaporized=""/>
    <tripinfo id="1.3" depart="104.00" departLane="N1A1_0" departPos="5.10" departSpeed="0.00" departDelay="34.00" arrival="306.00" arrivalLane="B1S1_0" arrivalPos="492.80" arrivalSpeed="9.54" duration="202.00" routeLength="1494.90" waitingTime="31.00" waitingCount="1" stopTime="0.00" timeLoss="52.18" rerouteNo="0" devices="tripinfo_1.3" vType="paperVehicle" speedFactor="0.96" vaporized=""/>
    <tripinfo id="6.10" depart="38.00" departLane="N1A1_0" departPos="5.10" departSpeed="0.00" departDelay="15.00" arrival="308.00" arrivalLane="B3E2_0" arrivalPos="496.00" arrivalSpeed="9.02" duration="270.00" routeLength="2495.93" waitingTime="0.00" waitingCount="0" stopTime="0.00" timeLoss="19.55" rerouteNo="0" devices="tripinfo_6.10" vType="paperVehicle" speedFactor="1.12" vaporized=""/>
    <tripinfo id="4.2" depart="62.00" departLane="W1A1_0" departPos="5.10" departSpeed="0.00" departDelay="0.00" arrival="309.00" arrivalLane="A3E1_0" arrivalPos="496.00" arrivalSpeed="8.95" duration="247.00" routeLength="1994.90" waitingTime="26.00" waitingCount="1" stopTime="0.00" timeLoss="46.77" rerouteNo="0" devices="tripinfo_4.2" vType="paperVehicle" speedFactor="1.02" vaporized=""/>
    <tripinfo id="4.3" depart="97.00" departLane="W1A1_0" departPos="5.10" departSpeed="0.00" departDelay="0.00" arrival="312.00" arrivalLane="A3E1_0" arrivalPos="496.00" arrivalSpeed="8.96" duration="215.00" routeLength="1994.90" waitingTime="0.00" waitingCount="0" stopTime="0.00" timeLoss="15.38" rerouteNo="0" devices="tripinfo_4.3" vType="paperVehicle" speedFactor="0.85" vaporized=""/>
    <tripinfo id="6.11" depart="44.00" departLane="N1A1_0" departPos="5.10" departSpeed="0.00" departDelay="17.00" arrival="315.00" arrivalLane="B3E2_0" arrivalPos="496.00" arrivalSpeed="9.16" duration="271.00" routeLength="2495.93" waitingTime="0.00" waitingCount="0" stopTime="0.00" timeLoss="20.75" rerouteNo="0" devices="tripinfo_6.11" vType="paperVehicle" speedFactor="0.88" vaporized=""/>
    <tripinfo id="1.4" depart="116.00" departLane="N1A1_0" departPos="5.10" departSpeed="0.00" departDelay="24.00" arrival="316.00" arrivalLane="B1S1_0" arrivalPos="492.80" arrivalSpeed="9.91" duration="200.00" routeLength="1494.90" waitingTime="26.00" waitingCount="1" stopTime="0.00" timeLoss="49.79" rerouteNo="0" devices="tripinfo_1.4" vType="paperVehicle" speedFactor="0.90" vaporized=""/>
    <tripinfo id="4.4" depart="100.00" departLane="W1A1_0" departPos="5.10" departSpeed="0.00" departDelay="0.00" arrival="316.00" arrivalLane="A3E1_0" arrivalPos="496.00" arrivalSpeed="8.77" duration="216.00" routeLength="1994.90" waitingTime="0.00" waitingCount="0" stopTime="0.00" timeLoss="15.69" rerouteNo="0" devices="tripinfo_4.4" vType="paperVehicle" speedFactor="1.17" vaporized=""/>
    <tripinfo id="6.12" depart="47.00" departLane="N1A1_0" departPos="5.10" departSpeed="0.00" departDelay="19.00" arrival="319.00" arrivalLane="B3E2_0" arrivalPos="496.00" arrivalSpeed="8.99" duration="272.00" routeLength="2495.93" waitingTime="0.00" waitingCount="0" stopTime="0.00" timeLoss="21.29" rerouteNo="0" devices="tripinfo_6.12" vType="paperVehicle" speedFactor="0.94" vaporized=""/>
    <tripinfo id="6.13" depart="50.00" departLane="N1A1_0" departPos="5.10" departSpeed="0.00" departDelay="19.00" arrival="321.00" arrivalLane="B3E2_0" arrivalPos="496.00" arrivalSpeed="9.29" duration="271.00" routeLength="2495.93" waitingTime="0.00" waitingCount="0" stopTime="0.00" timeLoss="20.56" rerouteNo="0" devices="tripinfo_6.13" vType="paperVehicle" speedFactor="1.16" vaporized=""/>
    <tripinfo id="3.5" depart="109.00" departLane="N3A3_0" departPos="5.10" departSpeed="0.00" departDelay="0.00" arrival="327.00" arrivalLane="B3S3_0" arrivalPos="492.80" arrivalSpeed="9.82" duration="218.00" routeLength="1494.90" waitingTime="53.00" waitingCount="1" stopTime="0.00" timeLoss="68.04" rerouteNo="0" devices="tripinfo_3.5" vType="paperVehicle" speedFactor="1.00" vaporized=""/>
    <tripinfo id="4.5" depart="112.00" departLane="W1A1_0" departPos="5.10" departSpeed="0.00" departDelay="0.00" arrival="328.00" arrivalLane="A3E1_0" arrivalPos="496.00" arrivalSpeed="9.88" duration="216.00" routeLength="1994.90" waitingTime="0.00" waitingCount="0" stopTime="0.00" timeLoss="16.52" rerouteNo="0" devices="tripinfo_4.5" vType="paperVehicle" speedFactor="1.00" vaporized=""/>
    <tripinfo id="1.5" depart="131.00" departLane="N1A1_0" departPos="5.10" departSpeed="0.00" departDelay="15.00" arrival="329.00" arrivalLane="B1S1_0" arrivalPos="492.80" arrivalSpeed="8.89" duration="198.00" routeLength="1494.90" waitingTime="20.00" waitingCount="1" stopTime="0.00" timeLoss="48.18" rerouteNo="0" devices="tripinfo_1.5" vType="paperVehicle" speedFactor="1.14" vaporized=""/>
    <tripinfo id="3.6" depart="119.00" departLane="N3A3_0" departPos="5.10" departSpeed="0.00" departDelay="0.00" arrival="329.00" arrivalLane="B3S3_0" arrivalPos="492.80" arrivalSpeed="8.96" duration="210.00" routeLength="1494.90" waitingTime="42.00" waitingCount="1" stopTime="0.00" timeLoss="60.42" rerouteNo="0" devices="tripinfo_3.6" vType="paperVehicle" speedFactor="1.02" vaporized=""/>
    <tripinfo id="3.7" depart="167.00" departLane="N3A3_0" departPos="5.10" departSpeed="0.00" departDelay="0.00" arrival="332.00" arrivalLane="B3S3_0" arrivalPos="492.80" arrivalSpeed="9.12" duration="165.00" routeLength="1494.90" waitingTime="0.00" waitingCount="0" stopTime="0.00" timeLoss="14.92" rerouteNo="0" devices="tripinfo_3.7" vType="paperVehicle" speedFactor="0.94" vaporized=""/>
    <tripinfo id="4.6" depart="117.00" departLane="W1A1_0" departPos="5.10" departSpeed="0.00" departDelay="0.00" arrival="333.00" arrivalLane="A3E1_0" arrivalPos="496.00" arrivalSpeed="9.95" duration="216.00" routeLength="1994.90" waitingTime="0.00" waitingCount="0" stopTime="0.00" timeLoss="16.27" rerouteNo="0" devices="tripinfo_4.6" vType="paperVehicle" speedFactor="0.97" vaporized=""/>
    <tripinfo id="5.0" depart="31.00" departLane="W2B1_0" departPos="5.10" departSpeed="0.00" departDelay="0.00" arrival="353.00" arrivalLane="B3E2_0" arrivalPos="496.00" arrivalSpeed="9.12" duration="322.00" routeLength="1994.90" waitingTime="98.00" waitingCount="2" stopTime="0.00" timeLoss="121.68" rerouteNo="0" devices="tripinfo_5.0" vType="paperVehicle" speedFactor="0.94" vaporized=""/>
    <tripinfo id="5.1" depart="84.00" departLane="W2B1_0" departPos="5.10" departSpeed="0.00" departDelay="0.00" arrival="355.00" arrivalLane="B3E2_0" arrivalPos="496.00" arrivalSpeed="9.17" duration="271.00" routeLength="1994.90" waitingTime="46.00" waitingCount="2" stopTime="0.00" timeLoss="71.21" rerouteNo="0" devices="tripinfo_5.1" vType="paperVehicle" speedFactor="1.04" vaporized=""/>
    <tripinfo id="6.14" depart="53.00" departLane="N1A1_0" departPos="5.10" departSpeed="0.00" departDelay="19.00" arrival="358.00" arrivalLane="B3E2_0" arrivalPos="496.00" arrivalSpeed="9.88" duration="305.00" routeLength="2495.93" waitingTime="25.00" waitingCount="1" stopTime="0.00" timeLoss="54.09" rerouteNo="0" devices="tripinfo_6.14" vType="paperVehicle" speedFactor="1.02" vaporized=""/>
    <tripinfo id="6.15" depart="56.00" departLane="N1A1_0" departPos="5.10" departSpeed="0.00" departDelay="20.00" arrival="360.00" arrivalLane="B3E2_0" arrivalPos="496.00" arrivalSpeed="9.80" duration="304.00" routeLength="2495.93" waitingTime="24.00" waitingCount="1" stopTime="0.00" timeLoss="53.33" rerouteNo="0" devices="tripinfo_6.15" vType="paperVehicle" speedFactor="1.01" vaporized=""/>
    <tripinfo id="6.16" depart="59.00" departLane="N1A1_0" departPos="5.10" departSpeed="0.00" departDelay="20.00" arrival="362.00" arrivalLane="B3E2_0" arrivalPos="496.00" arrivalSpeed="9.87" duration="303.00" routeLength="2495.93" waitingTime="23.00" waitingCount="1" stopTime="0.00" timeLoss="52.04" rerouteNo="0" devices="tripinfo_6.16" vType="paperVehicle" speedFactor="0.98" vaporized=""/>
    <tripinfo id="6.17" depart="62.00" departLane="N1A1_0" departPos="5.10" departSpeed="0.00" departDelay="21.00" arrival="364.00" arrivalLane="B3E2_0" arrivalPos="496.00" arrivalSpeed="8.76" duration="302.00" routeLength="2495.93" waitingTime="23.00" waitingCount="1" stopTime="0.00" timeLoss="51.54" rerouteNo="0" devices="tripinfo_6.17" vType="paperVehicle" speedFactor="0.89" vaporized=""/>
    <tripinfo id="6.18" depart="65.00" departLane="N1A1_0" departPos="5.10" departSpeed="0.00" departDelay="23.00" arrival="366.00" arrivalLane="B3E2_0" arrivalPos="496.00" arrivalSpeed="9.10" duration="301.00" routeLength="2495.93" waitingTime="21.00" waitingCount="1" stopTime="0.00" timeLoss="50.12" rerouteNo="0" devices="tripinfo_6.18" vType="paperVehicle" speedFactor="0.83" vaporized=""/>
    <tripinfo id="6.19" depart="68.00" departLane="N1A1_0" departPos="5.10" departSpeed="0.00" departDelay="25.00" arrival="368.00" arrivalLane="B3E2_0" arrivalPos="496.00" arrivalSpeed="9.43" duration="300.00" routeLength="2495.93" waitingTime="21.00" waitingCount="1" stopTime="0.00" timeLoss="49.48" rerouteNo="0" devices="tripinfo_6.19" vType="paperVehicle" speedFactor="0.87" vaporized=""/>
    <tripinfo id="6.20" depart="71.00" departLane="N1A1_0" departPos="5.10" departSpeed="0.00" departDelay="24.00" arrival="371.00" arrivalLane="B3E2_0" arrivalPos="496.00" arrivalSpeed="8.85" duration="300.00" routeLength="2495.93" waitingTime="20.00" waitingCount="1" stopTime="0.00" timeLoss="49.44" rerouteNo="0" devices="tripinfo_6.20" vType="paperVehicle" speedFactor="0.92" vaporized=""/>
    <tripinfo id="6.21" depart="74.00" departLane="N1A1_0" departPos="5.10" departSpeed="0.00" departDelay="20.00" arrival="374.00" arrivalLane="B3E2_0" arrivalPos="496.00" arrivalSpeed="9.54" duration="300.00" routeLength="2495.93" waitingTime="19.00" waitingCount="1" stopTime="0.00" timeLoss="49.46" rerouteNo="0" devices="tripinfo_6.21" vType="paperVehicle" speedFactor="0.95" vaporized=""/>
    <tripinfo id="6.22" depart="77.00" departLane="N1A1_0" departPos="5.10" departSpeed="0.00" departDelay="22.00" arrival="376.00" arrivalLane="B3E2_0" arrivalPos="496.00" arrivalSpeed="9.16" duration="299.00" routeLength="2495.93" waitingTime="16.00" waitingCount="1" stopTime="0.00" timeLoss="49.02" rerouteNo="0" devices="tripinfo_6.22" vType="paperVehicle" speedFactor="1.13" vaporized=""/>
    <tripinfo id="6.23" depart="80.00" departLane="N1A1_0" departPos="5.10" departSpeed="0.00" departDelay="24.00" arrival="378.00" arrivalLane="B3E2_0" arrivalPos="496.00" arrivalSpeed="9.99" duration="298.00" routeLength="2495.93" waitingTime="15.00" waitingCount="1" stopTime="0.00" timeLoss="48.04" rerouteNo="0" devices="tripinfo_6.23" vType="paperVehicle" speedFactor="1.18" vaporized=""/>
    <tripinfo id="2.1" depart="152.00" departLane="N2A2_0" departPos="5.10" departSpeed="0.00" departDelay="0.00" arrival="386.00" arrivalLane="B2S2_0" arrivalPos="492.80" arrivalSpeed="9.80" duration="234.00" routeLength="1494.90" waitingTime="64.00" waitingCount="2" stopTime="0.00" timeLoss="83.70" rerouteNo="0" devices="tripinfo_2.1" vType="paperVehicle" speedFactor="1.04" vaporized=""/>
    <tripinfo id="2.2" depart="186.00" departLane="N2A2_0" departPos="5.10" departSpeed="0.00" departDelay="0.00" arrival="388.00" arrivalLane="B2S2_0" arrivalPos="492.80" arrivalSpeed="9.89" duration="202.00" routeLength="1494.90" waitingTime="34.00" waitingCount="1" stopTime="0.00" timeLoss="51.86" rerouteNo="0" devices="tripinfo_2.2" vType="paperVehicle" speedFactor="1.00" vaporized=""/>
    <tripinfo id="2.3" depart="195.00" departLane="N2A2_0" departPos="5.10" departSpeed="0.00" departDelay="0.00" arrival="390.00" arrivalLane="B2S2_0" arrivalPos="492.80" arrivalSpeed="8.75" duration="195.00" routeLength="1494.90" waitingTime="28.00" waitingCount="1" stopTime="0.00" timeLoss="45.34" rerouteNo="0" devices="tripinfo_2.3" vType="paperVehicle" speedFactor="1.04" vaporized=""/>
    <tripinfo id="2.4" depart="200.00" departLane="N2A2_0" departPos="5.10" departSpeed="0.00" departDelay="0.00" arrival="392.00" arrivalLane="B2S2_0" arrivalPos="492.80" arrivalSpeed="8.77" duration="192.00" routeLength="1494.90" waitingTime="25.00" waitingCount="1" stopTime="0.00" timeLoss="42.45" rerouteNo="0" devices="tripinfo_2.4" vType="paperVehicle" speedFactor="0.89" vaporized=""/>
    <tripinfo id="6.24" depart="86.00" departLane="N1A1_0" departPos="5.10" departSpeed="0.00" departDelay="26.00" arrival="399.00" arrivalLane="B3E2_0" arrivalPos="496.00" arrivalSpeed="9.33" duration="313.00" routeLength="2495.93" waitingTime="37.00" waitingCount="1" stopTime="0.00" timeLoss="62.43" rerouteNo="0" devices="tripinfo_6.24" vType="paperVehicle" speedFactor="1.17" vaporized=""/>
    <tripinfo id="6.25" depart="89.00" departLane="N1A1_0" departPos="5.10" departSpeed="0.00" departDelay="28.00" arrival="402.00" arrivalLane="B3E2_0" arrivalPos="496.00" arrivalSpeed="9.29" duration="313.00" routeLength="2495.93" waitingTime="36.00" waitingCount="1" stopTime="0.00" timeLoss="62.46" rerouteNo="0" devices="tripinfo_6.25" vType="paperVehicle" speedFactor="0.99" vaporized=""/>
    <tripinfo id="6.26" depart="92.00" departLane="N1A1_0" departPos="5.10" departSpeed="0.00" departDelay="30.00" arrival="404.00" arrivalLane="B3E2_0" arrivalPos="496.00" arrivalSpeed="9.96" duration="312.00" routeLength="2495.93" waitingTime="35.00" waitingCount="1" stopTime="0.00" timeLoss="61.53" rerouteNo="0" devices="tripinfo_6.26" vType="paperVehicle" speedFactor="0.97" vaporized=""/>
    <tripinfo id="6.27" depart="95.00" departLane="N1A1_0" departPos="5.10" departSpeed="0.00" departDelay="31.00" arrival="406.00" arrivalLane="B3E2_0" arrivalPos="496.00" arrivalSpeed="9.20" duration="311.00" routeLength="2495.93" waitingTime="33.00" waitingCount="1" stopTime="0.00" timeLoss="61.14" rerouteNo="0" devices="tripinfo_6.27" vType="paperVehicle" speedFactor="1.18" vaporized=""/>
    <tripinfo id="2.5" depart="244.00" departLane="N2A2_0" departPos="5.10" departSpeed="0.00" departDelay="0.00" arrival="406.00" arrivalLane="B2S2_0" arrivalPos="492.80" arrivalSpeed="9.60" duration="162.00" routeLength="1494.90" waitingTime="0.00" waitingCount="0" stopTime="0.00" timeLoss="12.35" rerouteNo="0" devices="tripinfo_2.5" vType="paperVehicle" speedFactor="1.06" vaporized=""/>
    <tripinfo id="3.8" depart="193.00" departLane="N3A3_0" departPos="5.10" departSpeed="0.00" departDelay="0.00" arrival="413.00" arrivalLane="B3S3_0" arrivalPos="492.80" arrivalSpeed="9.17" duration="220.00" routeLength="1494.90" waitingTime="49.00" waitingCount="2" stopTime="0.00" timeLoss="70.06" rerouteNo="0" devices="tripinfo_3.8" vType="paperVehicle" speedFactor="0.98" vaporized=""/>
    <tripinfo id="3.9" depart="216.00" departLane="N3A3_0" departPos="5.10" departSpeed="0.00" departDelay="0.00" arrival="416.00" arrivalLane="B3S3_0" arrivalPos="492.80" arrivalSpeed="9.34" duration="200.00" routeLength="1494.90" waitingTime="27.00" waitingCount="2" stopTime="0.00" timeLoss="49.90" rerouteNo="0" devices="tripinfo_3.9" vType="paperVehicle" speedFactor="1.01" vaporized=""/>
    <tripinfo id="3.10" depart="241.00" departLane="N3A3_0" departPos="5.10" departSpeed="0.00" departDelay="0.00" arrival="418.00" arrivalLane="B3S3_0" arrivalPos="492.80" arrivalSpeed="9.94" duration="177.00" routeLength="1494.90" waitingTime="10.00" waitingCount="1" stopTime="0.00" timeLoss="26.91" rerouteNo="0" devices="tripinfo_3.10" vType="paperVehicle" speedFactor="1.07" vaporized=""/>
    <tripinfo id="1.6" depart="198.00" departLane="N1A1_0" departPos="5.10" departSpeed="0.00" departDelay="3.00" arrival="420.00" arrivalLane="B1S1_0" arrivalPos="492.80" arrivalSpeed="9.57" duration="222.00" routeLength="1494.90" waitingTime="32.00" waitingCount="1" stopTime="0.00" timeLoss="71.57" rerouteNo="0" devices="tripinfo_1.6" vType="paperVehicle" speedFactor="1.00" vaporized=""/>
    <tripinfo id="3.11" depart="263.00" departLane="N3A3_0" departPos="5.10" departSpeed="0.00" departDelay="0.00" arrival="424.00" arrivalLane="B3S3_0" arrivalPos="492.80" arrivalSpeed="9.40" duration="161.00" routeLength="1494.90" waitingTime="0.00" waitingCount="0" stopTime="0.00" timeLoss="11.49" rerouteNo="0" devices="tripinfo_3.11" vType="paperVehicle" speedFactor="1.01" vaporized=""/>
    <tripinfo id="4.7" depart="134.00" departLane="W1A1_0" departPos="5.10" departSpeed="0.00" departDelay="0.00" arrival="428.00" arrivalLane="A3E1_0" arrivalPos="496.00" arrivalSpeed="9.81" duration="294.00" routeLength="1994.90" waitingTime="74.00" waitingCount="1" stopTime="0.00" timeLoss="93.69" rerouteNo="0" devices="tripinfo_4.7" vType="paperVehicle" speedFactor="0.91" vaporized=""/>
    <tripinfo id="3.12" depart="267.00" departLane="N3A3_0" departPos="5.10" departSpeed="0.00" departDelay="0.00" arrival="428.00" arrivalLane="B3S3_0" arrivalPos="492.80" arrivalSpeed="8.99" duration="161.00" routeLength="1494.90" waitingTime="0.00" waitingCount="0" stopTime="0.00" timeLoss="11.51" rerouteNo="0" devices="tripinfo_3.12" vType="paperVehicle" speedFactor="0.99" vaporized=""/>
    <tripinfo id="4.8" depart="169.00" departLane="W1A1_0" departPos="5.10" departSpeed="0.00" departDelay="0.00" arrival="431.00" arrivalLane="A3E1_0" arrivalPos="496.00" arrivalSpeed="9.53" duration="262.00" routeLength="1994.90" waitingTime="41.00" waitingCount="1" stopTime="0.00" timeLoss="61.78" rerouteNo="0" devices="tripinfo_4.8" vType="paperVehicle" speedFactor="1.06" vaporized=""/>
    <tripinfo id="3.13" depart="270.00" departLane="N3A3_0" departPos="5.10" departSpeed="0.00" departDelay="2.00" arrival="432.00" arrivalLane="B3S3_0" arrivalPos="492.80" arrivalSpeed="9.57" duration="162.00" routeLength="1494.90" waitingTime="0.00" waitingCount="0" stopTime="0.00" timeLoss="12.42" rerouteNo="0" devices="tripinfo_3.13" vType="paperVehicle" speedFactor="1.07" vaporized=""/>
    <tripinfo id="4.9" depart="205.00" departLane="W1A1_0" departPos="5.10" departSpeed="0.00" departDelay="0.00" arrival="433.00" arrivalLane="A3E1_0" arrivalPos="496.00" arrivalSpeed="9.39" duration="228.00" routeLength="1994.90" waitingTime="8.00" waitingCount="1" stopTime="0.00" timeLoss="27.78" rerouteNo="0" devices="tripinfo_4.9" vType="paperVehicle" speedFactor="0.92" vaporized=""/>
    <tripinfo id="4.10" depart="218.00" departLane="W1A1_0" departPos="5.10" departSpeed="0.00" departDelay="0.00" arrival="435.00" arrivalLane="A3E1_0" arrivalPos="496.00" arrivalSpeed="9.18" duration="217.00" routeLength="1994.90" waitingTime="0.00" waitingCount="0" stopTime="0.00" timeLoss="17.10" rerouteNo="0" devices="tripinfo_4.10" vType="paperVehicle" speedFactor="1.12" vaporized=""/>
    <tripinfo id="6.28" depart="98.00" departLane="N1A1_0" departPos="5.10" departSpeed="0.00" departDelay="33.00" arrival="440.00" arrivalLane="B3E2_0" arrivalPos="496.00" arrivalSpeed="9.56" duration="342.00" routeLength="2495.93" waitingTime="59.00" waitingCount="2" stopTime="0.00" timeLoss="91.94" rerouteNo="0" devices="tripinfo_6.28" vType="paperVehicle" speedFactor="1.10" vaporized=""/>
    <tripinfo id="6.29" depart="101.00" departLane="N1A1_0" departPos="5.10" departSpeed="0.00" departDelay="33.00" arrival="443.00" arrivalLane="B3E2_0" arrivalPos="496.00" arrivalSpeed="9.54" duration="342.00" routeLength="2495.93" waitingTime="56.00" waitingCount="2" stopTime="0.00" timeLoss="91.03" rerouteNo="0" devices="tripinfo_6.29" vType="paperVehicle" speedFactor="1.03" vaporized=""/>
    <tripinfo id="6.30" depart="107.00" departLane="N1A1_0" departPos="5.10" departSpeed="0.00" departDelay="27.00" arrival="445.00" arrivalLane="B3E2_0" arrivalPos="496.00" arrivalSpeed="9.62" duration="338.00" routeLength="2495.93" waitingTime="52.00" waitingCount="2" stopTime="0.00" timeLoss="87.75" rerouteNo="0" devices="tripinfo_6.30" vType="paperVehicle" speedFactor="1.09" vaporized=""/>
    <tripinfo id="6.31" depart="110.00" departLane="N1A1_0" departPos="5.10" departSpeed="0.00" departDelay="28.00" arrival="447.00" arrivalLane="B3E2_0" arrivalPos="496.00" arrivalSpeed="9.33" duration="337.00" routeLength="2495.93" waitingTime="51.00" waitingCount="2" stopTime="0.00" timeLoss="86.90" rerouteNo="0" devices="tripinfo_6.31" vType="paperVehicle" speedFactor="1.04" vaporized=""/>
    <tripinfo id="6.32" depart="113.00" departLane="N1A1_0" departPos="5.10" departSpeed="0.00" departDelay="24.00" arrival="449.00" arrivalLane="B3E2_0" arrivalPos="496.00" arrivalSpeed="9.76" duration="336.00" routeLength="2495.93" waitingTime="50.00" waitingCount="2" stopTime="0.00" timeLoss="85.79" rerouteNo="0" devices="tripinfo_6.32" vType="paperVehicle" speedFactor="1.00" vaporized=""/>