<?xml version="1.0" encoding="UTF-8"?>

<!-- generated on 2022-02-06 23:36:29 by Eclipse SUMO sumo Version 1.10.0
<configuration xmlns:xsi="http://www.w3.org/2001/XMLSchema-instance" xsi:noNamespaceSchemaLocation="http://sumo.dlr.de/xsd/sumoConfiguration.xsd">

    <input>
        <net-file value="../2x3net.net.xml"/>
        <route-files value="../4162.5447354513612x3Routes.xml"/>
        <additional-files value="../additionals.xml"/>
    </input>

    <output>
        <tripinfo-output value="../4162.544735451361tripinfo.xml"/>
        <statistic-output value="../4162.544735451361statistics.xml"/>
    </output>

    <report>
        <no-step-log value="true"/>
    </report>

    <traci_server>
        <remote-port value="55884"/>
    </traci_server>

</configuration>
-->

<tripinfos xmlns:xsi="http://www.w3.org/2001/XMLSchema-instance" xsi:noNamespaceSchemaLocation="http://sumo.dlr.de/xsd/tripinfo_file.xsd">
    <tripinfo id="3.0" depart="15.00" departLane="N3A3_0" departPos="5.10" departSpeed="0.00" departDelay="0.00" arrival="177.00" arrivalLane="B3S3_0" arrivalPos="492.80" arrivalSpeed="9.88" duration="162.00" routeLength="1494.90" waitingTime="0.00" waitingCount="0" stopTime="0.00" timeLoss="11.74" rerouteNo="0" devices="tripinfo_3.0" vType="paperVehicle" speedFactor="1.03" vaporized=""/>
    <tripinfo id="3.1" depart="20.00" departLane="N3A3_0" departPos="5.10" departSpeed="0.00" departDelay="0.00" arrival="182.00" arrivalLane="B3S3_0" arrivalPos="492.80" arrivalSpeed="9.05" duration="162.00" routeLength="1494.90" waitingTime="0.00" waitingCount="0" stopTime="0.00" timeLoss="11.70" rerouteNo="0" devices="tripinfo_3.1" vType="paperVehicle" speedFactor="1.05" vaporized=""/>
    <tripinfo id="3.2" depart="30.00" departLane="N3A3_0" departPos="5.10" departSpeed="0.00" departDelay="0.00" arrival="192.00" arrivalLane="B3S3_0" arrivalPos="492.80" arrivalSpeed="9.98" duration="162.00" routeLength="1494.90" waitingTime="0.00" waitingCount="0" stopTime="0.00" timeLoss="11.89" rerouteNo="0" devices="tripinfo_3.2" vType="paperVehicle" speedFactor="1.03" vaporized=""/>
    <tripinfo id="5.0" depart="14.00" departLane="W2B1_0" departPos="5.10" departSpeed="0.00" departDelay="0.00" arrival="232.00" arrivalLane="B3E2_0" arrivalPos="496.00" arrivalSpeed="9.12" duration="218.00" routeLength="1994.90" waitingTime="0.00" waitingCount="0" stopTime="0.00" timeLoss="18.11" rerouteNo="0" devices="tripinfo_5.0" vType="paperVehicle" speedFactor="1.08" vaporized=""/>
    <tripinfo id="5.1" depart="25.00" departLane="W2B1_0" departPos="5.10" departSpeed="0.00" departDelay="0.00" arrival="241.00" arrivalLane="B3E2_0" arrivalPos="496.00" arrivalSpeed="9.96" duration="216.00" routeLength="1994.90" waitingTime="0.00" waitingCount="0" stopTime="0.00" timeLoss="15.64" rerouteNo="0" devices="tripinfo_5.1" vType="paperVehicle" speedFactor="0.86" vaporized=""/>
    <tripinfo id="1.0" depart="47.00" departLane="N1A1_0" departPos="5.10" departSpeed="0.00" departDelay="4.00" arrival="241.00" arrivalLane="B1S1_0" arrivalPos="492.80" arrivalSpeed="9.10" duration="194.00" routeLength="1494.90" waitingTime="26.00" waitingCount="1" stopTime="0.00" timeLoss="44.41" rerouteNo="0" devices="tripinfo_1.0" vType="paperVehicle" speedFactor="0.94" vaporized=""/>
    <tripinfo id="1.1" depart="56.00" departLane="N1A1_0" departPos="5.10" departSpeed="0.00" departDelay="0.00" arrival="248.00" arrivalLane="B1S1_0" arrivalPos="492.80" arrivalSpeed="8.98" duration="192.00" routeLength="1494.90" waitingTime="27.00" waitingCount="1" stopTime="0.00" timeLoss="42.50" rerouteNo="0" devices="tripinfo_1.1" vType="paperVehicle" speedFactor="1.02" vaporized=""/>
    <tripinfo id="1.2" depart="78.00" departLane="N1A1_0" departPos="5.10" departSpeed="0.00" departDelay="2.00" arrival="263.00" arrivalLane="B1S1_0" arrivalPos="492.80" arrivalSpeed="9.28" duration="185.00" routeLength="1494.90" waitingTime="13.00" waitingCount="1" stopTime="0.00" timeLoss="35.08" rerouteNo="0" devices="tripinfo_1.2" vType="paperVehicle" speedFactor="0.95" vaporized=""/>
    <tripinfo id="6.0" depart="0.00" departLane="N1A1_0" departPos="5.10" departSpeed="0.00" departDelay="0.00" arrival="271.00" arrivalLane="B3E2_0" arrivalPos="496.00" arrivalSpeed="9.94" duration="271.00" routeLength="2495.93" waitingTime="0.00" waitingCount="0" stopTime="0.00" timeLoss="20.68" rerouteNo="0" devices="tripinfo_6.0" vType="paperVehicle" speedFactor="1.06" vaporized=""/>
    <tripinfo id="4.0" depart="25.00" departLane="W1A1_0" departPos="5.10" departSpeed="0.00" departDelay="0.00" arrival="275.00" arrivalLane="A3E1_0" arrivalPos="496.00" arrivalSpeed="9.49" duration="250.00" routeLength="1994.90" waitingTime="32.00" waitingCount="1" stopTime="0.00" timeLoss="50.47" rerouteNo="0" devices="tripinfo_4.0" vType="paperVehicle" speedFactor="0.94" vaporized=""/>
    <tripinfo id="1.3" depart="106.00" departLane="N1A1_0" departPos="5.10" departSpeed="0.00" departDelay="0.00" arrival="277.00" arrivalLane="B1S1_0" arrivalPos="492.80" arrivalSpeed="9.86" duration="171.00" routeLength="1494.90" waitingTime="0.00" waitingCount="0" stopTime="0.00" timeLoss="21.34" rerouteNo="0" devices="tripinfo_1.3" vType="paperVehicle" speedFactor="1.18" vaporized=""/>
    <tripinfo id="4.1" depart="34.00" departLane="W1A1_0" departPos="5.10" departSpeed="0.00" departDelay="0.00" arrival="278.00" arrivalLane="A3E1_0" arrivalPos="496.00" arrivalSpeed="9.99" duration="244.00" routeLength="1994.90" waitingTime="24.00" waitingCount="1" stopTime="0.00" timeLoss="43.79" rerouteNo="0" devices="tripinfo_4.1" vType="paperVehicle" speedFactor="1.05" vaporized=""/>
    <tripinfo id="6.1" depart="8.00" departLane="N1A1_0" departPos="5.10" departSpeed="0.00" departDelay="0.00" arrival="279.00" arrivalLane="B3E2_0" arrivalPos="496.00" arrivalSpeed="8.95" duration="271.00" routeLength="2495.93" waitingTime="0.00" waitingCount="0" stopTime="0.00" timeLoss="20.52" rerouteNo="0" devices="tripinfo_6.1" vType="paperVehicle" speedFactor="0.94" vaporized=""/>
    <tripinfo id="4.2" depart="45.00" departLane="W1A1_0" departPos="5.10" departSpeed="0.00" departDelay="0.00" arrival="280.00" arrivalLane="A3E1_0" arrivalPos="496.00" arrivalSpeed="9.07" duration="235.00" routeLength="1994.90" waitingTime="15.00" waitingCount="1" stopTime="0.00" timeLoss="35.32" rerouteNo="0" devices="tripinfo_4.2" vType="paperVehicle" speedFactor="0.94" vaporized=""/>
    <tripinfo id="6.2" depart="12.00" departLane="N1A1_0" departPos="5.10" departSpeed="0.00" departDelay="0.00" arrival="282.00" arrivalLane="B3E2_0" arrivalPos="496.00" arrivalSpeed="9.90" duration="270.00" routeLength="2495.93" waitingTime="0.00" waitingCount="0" stopTime="0.00" timeLoss="18.95" rerouteNo="0" devices="tripinfo_6.2" vType="paperVehicle" speedFactor="1.01" vaporized=""/>
    <tripinfo id="3.3" depart="89.00" departLane="N3A3_0" departPos="5.10" departSpeed="0.00" departDelay="0.00" arrival="295.00" arrivalLane="B3S3_0" arrivalPos="492.80" arrivalSpeed="9.50" duration="206.00" routeLength="1494.90" waitingTime="39.00" waitingCount="1" stopTime="0.00" timeLoss="55.59" rerouteNo="0" devices="tripinfo_3.3" vType="paperVehicle" speedFactor="1.15" vaporized=""/>
    <tripinfo id="4.3" depart="79.00" departLane="W1A1_0" departPos="5.10" departSpeed="0.00" departDelay="0.00" arrival="296.00" arrivalLane="A3E1_0" arrivalPos="496.00" arrivalSpeed="8.79" duration="217.00" routeLength="1994.90" waitingTime="0.00" waitingCount="0" stopTime="0.00" timeLoss="16.68" rerouteNo="0" devices="tripinfo_4.3" vType="paperVehicle" speedFactor="0.93" vaporized=""/>
    <tripinfo id="3.4" depart="92.00" departLane="N3A3_0" departPos="5.10" departSpeed="0.00" departDelay="2.00" arrival="297.00" arrivalLane="B3S3_0" arrivalPos="492.80" arrivalSpeed="9.49" duration="205.00" routeLength="1494.90" waitingTime="38.00" waitingCount="1" stopTime="0.00" timeLoss="54.63" rerouteNo="0" devices="tripinfo_3.4" vType="paperVehicle" speedFactor="1.01" vaporized=""/>
    <tripinfo id="3.5" depart="148.00" departLane="N3A3_0" departPos="5.10" departSpeed="0.00" departDelay="0.00" arrival="311.00" arrivalLane="B3S3_0" arrivalPos="492.80" arrivalSpeed="9.23" duration="163.00" routeLength="1494.90" waitingTime="0.00" waitingCount="0" stopTime="0.00" timeLoss="12.62" rerouteNo="0" devices="tripinfo_3.5" vType="paperVehicle" speedFactor="1.00" vaporized=""/>
    <tripinfo id="6.3" depart="17.00" departLane="N1A1_0" departPos="5.10" departSpeed="0.00" departDelay="0.00" arrival="319.00" arrivalLane="B3E2_0" arrivalPos="496.00" arrivalSpeed="8.80" duration="302.00" routeLength="2495.93" waitingTime="25.00" waitingCount="1" stopTime="0.00" timeLoss="51.46" rerouteNo="0" devices="tripinfo_6.3" vType="paperVehicle" speedFactor="0.83" vaporized=""/>
    <tripinfo id="6.4" depart="21.00" departLane="N1A1_0" departPos="5.10" departSpeed="0.00" departDelay="0.00" arrival="322.00" arrivalLane="B3E2_0" arrivalPos="496.00" arrivalSpeed="9.22" duration="301.00" routeLength="2495.93" waitingTime="24.00" waitingCount="1" stopTime="0.00" timeLoss="50.10" rerouteNo="0" devices="tripinfo_6.4" vType="paperVehicle" speedFactor="0.89" vaporized=""/>
    <tripinfo id="6.5" depart="29.00" departLane="N1A1_0" departPos="5.10" departSpeed="0.00" departDelay="0.00" arrival="324.00" arrivalLane="B3E2_0" arrivalPos="496.00" arrivalSpeed="8.80" duration="295.00" routeLength="2495.93" waitingTime="21.00" waitingCount="1" stopTime="0.00" timeLoss="45.03" rerouteNo="0" devices="tripinfo_6.5" vType="paperVehicle" speedFactor="1.09" vaporized=""/>
    <tripinfo id="6.6" depart="35.00" departLane="N1A1_0" departPos="5.10" departSpeed="0.00" departDelay="0.00" arrival="326.00" arrivalLane="B3E2_0" arrivalPos="496.00" arrivalSpeed="8.80" duration="291.00" routeLength="2495.93" waitingTime="14.00" waitingCount="1" stopTime="0.00" timeLoss="40.96" rerouteNo="0" devices="tripinfo_6.6" vType="paperVehicle" speedFactor="1.12" vaporized=""/>
    <tripinfo id="6.7" depart="38.00" departLane="N1A1_0" departPos="5.10" departSpeed="0.00" departDelay="0.00" arrival="328.00" arrivalLane="B3E2_0" arrivalPos="496.00" arrivalSpeed="8.87" duration="290.00" routeLength="2495.93" waitingTime="12.00" waitingCount="1" stopTime="0.00" timeLoss="39.75" rerouteNo="0" devices="tripinfo_6.7" vType="paperVehicle" speedFactor="0.99" vaporized=""/>
    <tripinfo id="5.2" depart="75.00" departLane="W2B1_0" departPos="5.10" departSpeed="0.00" departDelay="0.00" arrival="331.00" arrivalLane="B3E2_0" arrivalPos="496.00" arrivalSpeed="8.95" duration="256.00" routeLength="1994.90" waitingTime="30.00" waitingCount="2" stopTime="0.00" timeLoss="55.66" rerouteNo="0" devices="tripinfo_5.2" vType="paperVehicle" speedFactor="0.87" vaporized=""/>
    <tripinfo id="5.3" depart="104.00" departLane="W2B1_0" departPos="5.10" departSpeed="0.00" departDelay="0.00" arrival="333.00" arrivalLane="B3E2_0" arrivalPos="496.00" arrivalSpeed="9.66" duration="229.00" routeLength="1994.90" waitingTime="5.00" waitingCount="1" stopTime="0.00" timeLoss="28.92" rerouteNo="0" devices="tripinfo_5.3" vType="paperVehicle" speedFactor="0.97" vaporized=""/>
    <tripinfo id="5.4" depart="119.00" departLane="W2B1_0" departPos="5.10" departSpeed="0.00" departDelay="0.00" arrival="335.00" arrivalLane="B3E2_0" arrivalPos="496.00" arrivalSpeed="9.30" duration="216.00" routeLength="1994.90" waitingTime="0.00" waitingCount="0" stopTime="0.00" timeLoss="16.20" rerouteNo="0" devices="tripinfo_5.4" vType="paperVehicle" speedFactor="1.04" vaporized=""/>
    <tripinfo id="2.0" depart="56.00" departLane="N2A2_0" departPos="5.10" departSpeed="0.00" departDelay="0.00" arrival="337.00" arrivalLane="B2S2_0" arrivalPos="492.80" arrivalSpeed="9.30" duration="281.00" routeLength="1494.90" waitingTime="114.00" waitingCount="1" stopTime="0.00" timeLoss="131.48" rerouteNo="0" devices="tripinfo_2.0" vType="paperVehicle" speedFactor="1.01" vaporized=""/>
    <tripinfo id="2.1" depart="163.00" departLane="N2A2_0" departPos="5.10" departSpeed="0.00" departDelay="0.00" arrival="340.00" arrivalLane="B2S2_0" arrivalPos="492.80" arrivalSpeed="9.69" duration="177.00" routeLength="1494.90" waitingTime="10.00" waitingCount="1" stopTime="0.00" timeLoss="26.89" rerouteNo="0" devices="tripinfo_2.1" vType="paperVehicle" speedFactor="1.02" vaporized=""/>
    <tripinfo id="6.8" depart="41.00" departLane="N1A1_0" departPos="5.10" departSpeed="0.00" departDelay="2.00" arrival="343.00" arrivalLane="B3E2_0" arrivalPos="496.00" arrivalSpeed="9.41" duration="302.00" routeLength="2495.93" waitingTime="30.00" waitingCount="1" stopTime="0.00" timeLoss="51.14" rerouteNo="0" devices="tripinfo_6.8" vType="paperVehicle" speedFactor="0.93" vaporized=""/>
    <tripinfo id="2.2" depart="183.00" departLane="N2A2_0" departPos="5.10" departSpeed="0.00" departDelay="0.00" arrival="345.00" arrivalLane="B2S2_0" arrivalPos="492.80" arrivalSpeed="8.94" duration="162.00" routeLength="1494.90" waitingTime="0.00" waitingCount="0" stopTime="0.00" timeLoss="11.89" rerouteNo="0" devices="tripinfo_2.2" vType="paperVehicle" speedFactor="0.88" vaporized=""/>
    <tripinfo id="6.9" depart="44.00" departLane="N1A1_0" departPos="5.10" departSpeed="0.00" departDelay="4.00" arrival="346.00" arrivalLane="B3E2_0" arrivalPos="496.00" arrivalSpeed="9.19" duration="302.00" routeLength="2495.93" waitingTime="28.00" waitingCount="1" stopTime="0.00" timeLoss="51.07" rerouteNo="0" devices="tripinfo_6.9" vType="paperVehicle" speedFactor="0.88" vaporized=""/>
    <tripinfo id="6.10" depart="50.00" departLane="N1A1_0" departPos="5.10" departSpeed="0.00" departDelay="1.00" arrival="351.00" arrivalLane="B3E2_0" arrivalPos="496.00" arrivalSpeed="8.86" duration="301.00" routeLength="2495.93" waitingTime="25.00" waitingCount="1" stopTime="0.00" timeLoss="50.75" rerouteNo="0" devices="tripinfo_6.10" vType="paperVehicle" speedFactor="1.16" vaporized=""/>
    <tripinfo id="6.11" depart="63.00" departLane="N1A1_0" departPos="5.10" departSpeed="0.00" departDelay="0.00" arrival="360.00" arrivalLane="B3E2_0" arrivalPos="496.00" arrivalSpeed="9.47" duration="297.00" routeLength="2495.93" waitingTime="23.00" waitingCount="1" stopTime="0.00" timeLoss="46.50" rerouteNo="0" devices="tripinfo_6.11" vType="paperVehicle" speedFactor="0.98" vaporized=""/>
    <tripinfo id="6.12" depart="68.00" departLane="N1A1_0" departPos="5.10" departSpeed="0.00" departDelay="0.00" arrival="362.00" arrivalLane="B3E2_0" arrivalPos="496.00" arrivalSpeed="9.54" duration="294.00" routeLength="2495.93" waitingTime="16.00" waitingCount="1" stopTime="0.00" timeLoss="43.42" rerouteNo="0" devices="tripinfo_6.12" vType="paperVehicle" speedFactor="0.89" vaporized=""/>
    <tripinfo id="3.6" depart="195.00" departLane="N3A3_0" departPos="5.10" departSpeed="0.00" departDelay="0.00" arrival="370.00" arrivalLane="B3S3_0" arrivalPos="492.80" arrivalSpeed="9.87" duration="175.00" routeLength="1494.90" waitingTime="7.00" waitingCount="1" stopTime="0.00" timeLoss="24.54" rerouteNo="0" devices="tripinfo_3.6" vType="paperVehicle" speedFactor="1.04" vaporized=""/>
    <tripinfo id="3.7" depart="200.00" departLane="N3A3_0" departPos="5.10" departSpeed="0.00" departDelay="0.00" arrival="372.00" arrivalLane="B3S3_0" arrivalPos="492.80" arrivalSpeed="8.87" duration="172.00" routeLength="1494.90" waitingTime="5.00" waitingCount="1" stopTime="0.00" timeLoss="21.74" rerouteNo="0" devices="tripinfo_3.7" vType="paperVehicle" speedFactor="1.02" vaporized=""/>
    <tripinfo id="4.4" depart="107.00" departLane="W1A1_0" departPos="5.10" departSpeed="0.00" departDelay="0.00" arrival="374.00" arrivalLane="A3E1_0" arrivalPos="496.00" arrivalSpeed="9.30" duration="267.00" routeLength="1994.90" waitingTime="47.00" waitingCount="1" stopTime="0.00" timeLoss="66.75" rerouteNo="0" devices="tripinfo_4.4" vType="paperVehicle" speedFactor="1.10" vaporized=""/>
    <tripinfo id="3.8" depart="203.00" departLane="N3A3_0" departPos="5.10" departSpeed="0.00" departDelay="0.00" arrival="374.00" arrivalLane="B3S3_0" arrivalPos="492.80" arrivalSpeed="9.88" duration="171.00" routeLength="1494.90" waitingTime="3.00" waitingCount="1" stopTime="0.00" timeLoss="20.91" rerouteNo="0" devices="tripinfo_3.8" vType="paperVehicle" speedFactor="0.94" vaporized=""/>
    <tripinfo id="3.9" depart="206.00" departLane="N3A3_0" departPos="5.10" departSpeed="0.00" departDelay="2.00" arrival="376.00" arrivalLane="B3S3_0" arrivalPos="492.80" arrivalSpeed="9.26" duration="170.00" routeLength="1494.90" waitingTime="1.00" waitingCount="1" stopTime="0.00" timeLoss="20.09" rerouteNo="0" devices="tripinfo_3.9" vType="paperVehicle" speedFactor="1.06" vaporized=""/>
    <tripinfo id="4.5" depart="111.00" departLane="W1A1_0" departPos="5.10" departSpeed="0.00" departDelay="0.00" arrival="377.00" arrivalLane="A3E1_0" arrivalPos="496.00" arrivalSpeed="9.29" duration="266.00" routeLength="1994.90" waitingTime="45.00" waitingCount="1" stopTime="0.00" timeLoss="65.77" rerouteNo="0" devices="tripinfo_4.5" vType="paperVehicle" speedFactor="0.96" vaporized=""/>
    <tripinfo id="4.6" depart="120.00" departLane="W1A1_0" departPos="5.10" departSpeed="0.00" departDelay="0.00" arrival="379.00" arrivalLane="A3E1_0" arrivalPos="496.00" arrivalSpeed="9.95" duration="259.00" routeLength="1994.90" waitingTime="37.00" waitingCount="1" stopTime="0.00" timeLoss="58.73" rerouteNo="0" devices="tripinfo_4.6" vType="paperVehicle" speedFactor="1.04" vaporized=""/>
    <tripinfo id="3.10" depart="228.00" departLane="N3A3_0" departPos="5.10" departSpeed="0.00" departDelay="0.00" arrival="391.00" arrivalLane="B3S3_0" arrivalPos="492.80" arrivalSpeed="9.86" duration="163.00" routeLength="1494.90" waitingTime="0.00" waitingCount="0" stopTime="0.00" timeLoss="12.59" rerouteNo="0" devices="tripinfo_3.10" vType="paperVehicle" speedFactor="0.98" vaporized=""/>
    <tripinfo id="6.13" depart="71.00" departLane="N1A1_0" departPos="5.10" departSpeed="0.00" departDelay="0.00" arrival="399.00" arrivalLane="B3E2_0" arrivalPos="496.00" arrivalSpeed="9.88" duration="328.00" routeLength="2495.93" waitingTime="44.00" waitingCount="2" stopTime="0.00" timeLoss="77.06" rerouteNo="0" devices="tripinfo_6.13" vType="paperVehicle" speedFactor="0.83" vaporized=""/>
    <tripinfo id="6.14" depart="75.00" departLane="N1A1_0" departPos="5.10" departSpeed="0.00" departDelay="0.00" arrival="401.00" arrivalLane="B3E2_0" arrivalPos="496.00" arrivalSpeed="9.80" duration="326.00" routeLength="2495.93" waitingTime="41.00" waitingCount="2" stopTime="0.00" timeLoss="75.32" rerouteNo="0" devices="tripinfo_6.14" vType="paperVehicle" speedFactor="0.92" vaporized=""/>
    <tripinfo id="6.15" depart="81.00" departLane="N1A1_0" departPos="5.10" departSpeed="0.00" departDelay="3.00" arrival="403.00" arrivalLane="B3E2_0" arrivalPos="496.00" arrivalSpeed="9.07" duration="322.00" routeLength="2495.93" waitingTime="38.00" waitingCount="2" stopTime="0.00" timeLoss="71.63" rerouteNo="0" devices="tripinfo_6.15" vType="paperVehicle" speedFactor="1.13" vaporized=""/>
    <tripinfo id="6.16" depart="85.00" departLane="N1A1_0" departPos="5.10" departSpeed="0.00" departDelay="0.00" arrival="406.00" arrivalLane="B3E2_0" arrivalPos="496.00" arrivalSpeed="9.70" duration="321.00" routeLength="2495.93" waitingTime="34.00" waitingCount="2" stopTime="0.00" timeLoss="70.29" rerouteNo="0" devices="tripinfo_6.16" vType="paperVehicle" speedFactor="1.18" vaporized=""/>
    <tripinfo id="6.17" depart="93.00" departLane="N1A1_0" departPos="5.10" departSpeed="0.00" departDelay="0.00" arrival="408.00" arrivalLane="B3E2_0" arrivalPos="496.00" arrivalSpeed="9.57" duration="315.00" routeLength="2495.93" waitingTime="27.00" waitingCount="2" stopTime="0.00" timeLoss="64.33" rerouteNo="0" devices="tripinfo_6.17" vType="paperVehicle" speedFactor="1.17" vaporized=""/>
    <tripinfo id="6.18" depart="96.00" departLane="N1A1_0" departPos="5.10" departSpeed="0.00" departDelay="0.00" arrival="410.00" arrivalLane="B3E2_0" arrivalPos="496.00" arrivalSpeed="9.35" duration="314.00" routeLength="2495.93" waitingTime="25.00" waitingCount="2" stopTime="0.00" timeLoss="63.19" rerouteNo="0" devices="tripinfo_6.18" vType="paperVehicle" speedFactor="0.99" vaporized=""/>
    <tripinfo id="6.19" depart="99.00" departLane="N1A1_0" departPos="5.10" departSpeed="0.00" departDelay="0.00" arrival="412.00" arrivalLane="B3E2_0" arrivalPos="496.00" arrivalSpeed="9.46" duration="313.00" routeLength="2495.93" waitingTime="23.00" waitingCount="2" stopTime="0.00" timeLoss="62.58" rerouteNo="0" devices="tripinfo_6.19" vType="paperVehicle" speedFactor="1.02" vaporized=""/>
    <tripinfo id="6.20" depart="109.00" departLane="N1A1_0" departPos="5.10" departSpeed="0.00" departDelay="1.00" arrival="416.00" arrivalLane="B3E2_0" arrivalPos="496.00" arrivalSpeed="9.57" duration="307.00" routeLength="2495.93" waitingTime="24.00" waitingCount="1" stopTime="0.00" timeLoss="56.59" rerouteNo="0" devices="tripinfo_6.20" vType="paperVehicle" speedFactor="0.90" vaporized=""/>
    <tripinfo id="6.21" depart="112.00" departLane="N1A1_0" departPos="5.10" departSpeed="0.00" departDelay="2.00" arrival="419.00" arrivalLane="B3E2_0" arrivalPos="496.00" arrivalSpeed="8.76" duration="307.00" routeLength="2495.93" waitingTime="22.00" waitingCount="1" stopTime="0.00" timeLoss="56.40" rerouteNo="0" devices="tripinfo_6.21" vType="paperVehicle" speedFactor="1.03" vaporized=""/>
    <tripinfo id="6.22" depart="115.00" departLane="N1A1_0" departPos="5.10" departSpeed="0.00" departDelay="3.00" arrival="421.00" arrivalLane="B3E2_0" arrivalPos="496.00" arrivalSpeed="9.59" duration="306.00" routeLength="2495.93" waitingTime="21.00" waitingCount="1" stopTime="0.00" timeLoss="55.11" rerouteNo="0" devices="tripinfo_6.22" vType="paperVehicle" speedFactor="1.09" vaporized=""/>
    <tripinfo id="6.23" depart="120.00" departLane="N1A1_0" departPos="5.10" departSpeed="0.00" departDelay="0.00" arrival="423.00" arrivalLane="B3E2_0" arrivalPos="496.00" arrivalSpeed="9.66" duration="303.00" routeLength="2495.93" waitingTime="21.00" waitingCount="1" stopTime="0.00" timeLoss="52.64" rerouteNo="0" devices="tripinfo_6.23" vType="paperVehicle" speedFactor="1.09" vaporized=""/>
    <tripinfo id="6.24" depart="125.00" departLane="N1A1_0" departPos="5.10" departSpeed="0.00" departDelay="0.00" arrival="426.00" arrivalLane="B3E2_0" arrivalPos="496.00" arrivalSpeed="8.92" duration="301.00" routeLength="2495.93" waitingTime="20.00" waitingCount="1" stopTime="0.00" timeLoss="50.28" rerouteNo="0" devices="tripinfo_6.24" vType="paperVehicle" speedFactor="1.00" vaporized=""/>
    <tripinfo id="1.4" depart="228.00" departLane="N1A1_0" departPos="5.10" departSpeed="0.00" departDelay="4.00" arrival="427.00" arrivalLane="B1S1_0" arrivalPos="492.80" arrivalSpeed="9.93" duration="199.00" routeLength="1494.90" waitingTime="24.00" waitingCount="1" stopTime="0.00" timeLoss="49.16" rerouteNo="0" devices="tripinfo_1.4" vType="paperVehicle" speedFactor="1.15" vaporized=""/>
    <tripinfo id="6.25" depart="129.00" departLane="N1A1_0" departPos="5.10" departSpeed="0.00" departDelay="0.00" arrival="428.00" arrivalLane="B3E2_0" arrivalPos="496.00" arrivalSpeed="9.69" duration="299.00" routeLength="2495.93" waitingTime="19.00" waitingCount="1" stopTime="0.00" timeLoss="48.21" rerouteNo="0" devices="tripinfo_6.25" vType="paperVehicle" speedFactor="0.90" vaporized=""/>
    <tripinfo id="6.26" depart="132.00" departLane="N1A1_0" departPos="5.10" departSpeed="0.00" departDelay="2.00" arrival="430.00" arrivalLane="B3E2_0" arrivalPos="496.00" arrivalSpeed="9.85" duration="298.00" routeLength="2495.93" waitingTime="18.00" waitingCount="1" stopTime="0.00" timeLoss="46.76" rerouteNo="0" devices="tripinfo_6.26" vType="paperVehicle" speedFactor="0.88" vaporized=""/>
    <tripinfo id="6.27" depart="135.00" departLane="N1A1_0" departPos="5.10" departSpeed="0.00" departDelay="3.00" arrival="432.00" arrivalLane="B3E2_0" arrivalPos="496.00" arrivalSpeed="9.16" duration="297.00" routeLength="2495.93" waitingTime="17.00" waitingCount="1" stopTime="0.00" timeLoss="46.03" rerouteNo="0" devices="tripinfo_6.27" vType="paperVehicle" speedFactor="0.85" vaporized=""/>
    <tripinfo id="6.28" depart="138.00" departLane="N1A1_0" departPos="5.10" departSpeed="0.00" departDelay="3.00" arrival="434.00" arrivalLane="B3E2_0" arrivalPos="496.00" arrivalSpeed="9.56" duration="296.00" routeLength="2495.93" waitingTime="17.00" waitingCount="1" stopTime="0.00" timeLoss="45.27" rerouteNo="0" devices="tripinfo_6.28" vType="paperVehicle" speedFactor="0.85" vaporized=""/>
    <tripinfo id="6.29" depart="141.00" departLane="N1A1_0" departPos="5.10" departSpeed="0.00" departDelay="2.00" arrival="436.00" arrivalLane="B3E2_0" arrivalPos="496.00" arrivalSpeed="9.79" duration="295.00" routeLength="2495.93" waitingTime="15.00" waitingCount="1" stopTime="0.00" timeLoss="44.79" rerouteNo="0" devices="tripinfo_6.29" vType="paperVehicle" speedFactor="1.17" vaporized=""/>
    <tripinfo id="6.30" depart="144.00" departLane="N1A1_0" departPos="5.10" departSpeed="0.00" departDelay="3.00" arrival="438.00" arrivalLane="B3E2_0" arrivalPos="496.00" arrivalSpeed="9.32" duration="294.00" routeLength="2495.93" waitingTime="15.00" waitingCount="1" stopTime="0.00" timeLoss="43.61" rerouteNo="0" devices="tripinfo_6.30" vType="paperVehicle" speedFactor="1.02" vaporized=""/>
    <tripinfo id="6.31" depart="148.00" departLane="N1A1_0" departPos="5.10" departSpeed="0.00" departDelay="3.00" arrival="441.00" arrivalLane="B3E2_0" arrivalPos="496.00" arrivalSpeed="9.94" duration="293.00" routeLength="2495.93" waitingTime="15.00" waitingCount="1" stopTime="0.00" timeLoss="41.98" rerouteNo="0" devices="tripinfo_6.31" vType="paperVehicle" speedFactor="1.10" vaporized=""/>
    <tripinfo id="6.32" depart="153.00" departLane="N1A1_0" departPos="5.10" departSpeed="0.00" departDelay="0.00" arrival="453.00" arrivalLane="B3E2_0" arrivalPos="496.00" arrivalSpeed="9.91" duration="300.00" routeLength="2495.93" waitingTime="25.00" waitingCount="1" stopTime="0.00" timeLoss="49.07" rerouteNo="0" devices="tripinfo_6.32" vType="paperVehicle" speedFactor="1.00" vaporized=""/>
    <tripinfo id="6.33" depart="156.00" departLane="N1A1_0" departPos="5.10" departSpeed="0.00" departDelay="2.00" arrival="457.00" arrivalLane="B3E2_0" arrivalPos="496.00" arrivalSpeed="8.74" duration="301.00" routeLength="2495.93" waitingTime="23.00" waitingCount="1" stopTime="0.00" timeLoss="50.04" rerouteNo="0" devices="tripinfo_6.33" vType="paperVehicle" speedFactor="0.90" vaporized=""/>
    <tripinfo id="1.5" depart="259.00" departLane="N1A1_0" departPos="5.10" departSpeed="0.00" departDelay="0.00" arrival="458.00" arrivalLane="B1S1_0" arrivalPos="492.80" arrivalSpeed="9.44" duration="199.00" routeLength="1494.90" waitingTime="30.00" waitingCount="1" stopTime="0.00" timeLoss="48.71" rerouteNo="0" devices="tripinfo_1.5" vType="paperVehicle" speedFactor="0.92" vaporized=""/>
    <tripinfo id="6.34" depart="161.00" departLane="N1A1_0" departPos="5.10" departSpeed="0.00" departDelay="0.00" arrival="459.00" arrivalLane="B3E2_0" arrivalPos="496.00" arrivalSpeed="9.08" duration="298.00" routeLength="2495.93" waitingTime="20.00" waitingCount="1" stopTime="0.00" timeLoss="48.12" rerouteNo="0" devices="tripinfo_6.34" vType="paperVehicle" speedFactor="1.14" vaporized=""/>
    <tripinfo id="1.6" depart="272.00" departLane="N1A1_0" departPos="5.10" departSpeed="0.00" departDelay="0.00" arrival="460.00" arrivalLane="B1S1_0" arrivalPos="492.80" arrivalSpeed="8.93" duration="188.00" routeLength="1494.90" waitingTime="19.00" waitingCount="1" stopTime="0.00" timeLoss="38.34" rerouteNo="0" devices="tripinfo_1.6" vType="paperVehicle" speedFactor="1.06" vaporized=""/>
    <tripinfo id="4.7" depart="201.00" departLane="W1A1_0" departPos="5.10" departSpeed="0.00" departDelay="0.00" arrival="461.00" arrivalLane="A3E1_0" arrivalPos="496.00" arrivalSpeed="9.46" duration="260.00" routeLength="1994.90" waitingTime="38.00" waitingCount="1" stopTime="0.00" timeLoss="59.60" rerouteNo="0" devices="tripinfo_4.7" vType="paperVehicle" speedFactor="1.02" vaporized=""/>
    <tripinfo id="6.35" depart="166.00" departLane="N1A1_0" departPos="5.10" departSpeed="0.00" departDelay="0.00" arrival="462.00" arrivalLane="B3E2_0" arrivalPos="496.00" arrivalSpeed="9.72" duration="296.00" routeLength="2495.93" waitingTime="17.00" waitingCount="1" stopTime="0.00" timeLoss="46.06" rerouteNo="0" devices="tripinfo_6.35" vType="paperVehicle" speedFactor="0.97" vaporized=""/>
    <tripinfo id="4.8" depart="211.00" departLane="W1A1_0" departPos="5.10" departSpeed="0.00" departDelay="0.00" arrival="463.00" arrivalLane="A3E1_0" arrivalPos="496.00" arrivalSpeed="9.74" duration="252.00" routeLength="1994.90" waitingTime="29.00" waitingCount="1" stopTime="0.00" timeLoss="51.66" rerouteNo="0" devices="tripinfo_4.8" vType="paperVehicle" speedFactor="1.09" vaporized=""/>
    <tripinfo id="6.36" depart="171.00" departLane="N1A1_0" departPos="5.10" departSpeed="0.00" departDelay="0.00" arrival="465.00" arrivalLane="B3E2_0" arrivalPos="496.00" arrivalSpeed="9.56" duration="294.00" routeLength="2495.93" waitingTime="15.00" waitingCount="1" stopTime="0.00" timeLoss="43.37" rerouteNo="0" devices="tripinfo_6.36" vType="paperVehicle" speedFactor="1.08" vaporized=""/>
    <tripinfo id="4.9" depart="245.00" departLane="W1A1_0" departPos="5.10" departSpeed="0.00" departDelay="0.00" arrival="465.00" arrivalLane="A3E1_0" arrivalPos="496.00" arrivalSpeed="9.39" duration="220.00" routeLength="1994.90" waitingTime="0.00" waitingCount="0" stopTime="0.00" timeLoss="19.95" rerouteNo="0" devices="tripinfo_4.9" vType="paperVehicle" speedFactor="1.02" vaporized=""/>