<?xml version="1.0" encoding="UTF-8"?>

<!-- generated on 2022-02-06 23:36:29 by Eclipse SUMO sumo Version 1.10.0
<configuration xmlns:xsi="http://www.w3.org/2001/XMLSchema-instance" xsi:noNamespaceSchemaLocation="http://sumo.dlr.de/xsd/sumoConfiguration.xsd">

    <input>
        <net-file value="../2x3net.net.xml"/>
        <route-files value="../4697.9574492176632x3Routes.xml"/>
        <additional-files value="../additionals.xml"/>
    </input>

    <output>
        <tripinfo-output value="../4697.957449217663tripinfo.xml"/>
        <statistic-output value="../4697.957449217663statistics.xml"/>
    </output>

    <report>
        <no-step-log value="true"/>
    </report>

    <traci_server>
        <remote-port value="55890"/>
    </traci_server>

</configuration>
-->

<tripinfos xmlns:xsi="http://www.w3.org/2001/XMLSchema-instance" xsi:noNamespaceSchemaLocation="http://sumo.dlr.de/xsd/tripinfo_file.xsd">
    <tripinfo id="3.0" depart="40.00" departLane="N3A3_0" departPos="5.10" departSpeed="0.00" departDelay="0.00" arrival="201.00" arrivalLane="B3S3_0" arrivalPos="492.80" arrivalSpeed="9.41" duration="161.00" routeLength="1494.90" waitingTime="0.00" waitingCount="0" stopTime="0.00" timeLoss="11.06" rerouteNo="0" devices="tripinfo_3.0" vType="paperVehicle" speedFactor="1.09" vaporized=""/>
    <tripinfo id="1.0" depart="21.00" departLane="N1A1_0" departPos="5.10" departSpeed="0.00" departDelay="3.00" arrival="215.00" arrivalLane="B1S1_0" arrivalPos="492.80" arrivalSpeed="8.89" duration="194.00" routeLength="1494.90" waitingTime="25.00" waitingCount="1" stopTime="0.00" timeLoss="44.06" rerouteNo="0" devices="tripinfo_1.0" vType="paperVehicle" speedFactor="1.05" vaporized=""/>
    <tripinfo id="3.1" depart="69.00" departLane="N3A3_0" departPos="5.10" departSpeed="0.00" departDelay="0.00" arrival="231.00" arrivalLane="B3S3_0" arrivalPos="492.80" arrivalSpeed="8.73" duration="162.00" routeLength="1494.90" waitingTime="0.00" waitingCount="0" stopTime="0.00" timeLoss="11.73" rerouteNo="0" devices="tripinfo_3.1" vType="paperVehicle" speedFactor="0.87" vaporized=""/>
    <tripinfo id="1.1" depart="60.00" departLane="N1A1_0" departPos="5.10" departSpeed="0.00" departDelay="0.00" arrival="233.00" arrivalLane="B1S1_0" arrivalPos="492.80" arrivalSpeed="9.03" duration="173.00" routeLength="1494.90" waitingTime="0.00" waitingCount="0" stopTime="0.00" timeLoss="23.43" rerouteNo="0" devices="tripinfo_1.1" vType="paperVehicle" speedFactor="1.16" vaporized=""/>
    <tripinfo id="1.2" depart="69.00" departLane="N1A1_0" departPos="5.10" departSpeed="0.00" departDelay="6.00" arrival="262.00" arrivalLane="B1S1_0" arrivalPos="492.80" arrivalSpeed="9.91" duration="193.00" routeLength="1494.90" waitingTime="26.00" waitingCount="1" stopTime="0.00" timeLoss="43.22" rerouteNo="0" devices="tripinfo_1.2" vType="paperVehicle" speedFactor="0.98" vaporized=""/>
    <tripinfo id="1.3" depart="75.00" departLane="N1A1_0" departPos="5.10" departSpeed="0.00" departDelay="8.00" arrival="267.00" arrivalLane="B1S1_0" arrivalPos="492.80" arrivalSpeed="9.74" duration="192.00" routeLength="1494.90" waitingTime="23.00" waitingCount="1" stopTime="0.00" timeLoss="42.49" rerouteNo="0" devices="tripinfo_1.3" vType="paperVehicle" speedFactor="0.83" vaporized=""/>
    <tripinfo id="6.0" depart="5.00" departLane="N1A1_0" departPos="5.10" departSpeed="0.00" departDelay="0.00" arrival="276.00" arrivalLane="B3E2_0" arrivalPos="496.00" arrivalSpeed="9.86" duration="271.00" routeLength="2495.93" waitingTime="0.00" waitingCount="0" stopTime="0.00" timeLoss="20.27" rerouteNo="0" devices="tripinfo_6.0" vType="paperVehicle" speedFactor="1.06" vaporized=""/>
    <tripinfo id="1.4" depart="87.00" departLane="N1A1_0" departPos="5.10" departSpeed="0.00" departDelay="12.00" arrival="278.00" arrivalLane="B1S1_0" arrivalPos="492.80" arrivalSpeed="9.72" duration="191.00" routeLength="1494.90" waitingTime="18.00" waitingCount="1" stopTime="0.00" timeLoss="41.14" rerouteNo="0" devices="tripinfo_1.4" vType="paperVehicle" speedFactor="1.18" vaporized=""/>
    <tripinfo id="6.1" depart="9.00" departLane="N1A1_0" departPos="5.10" departSpeed="0.00" departDelay="0.00" arrival="279.00" arrivalLane="B3E2_0" arrivalPos="496.00" arrivalSpeed="9.05" duration="270.00" routeLength="2495.93" waitingTime="0.00" waitingCount="0" stopTime="0.00" timeLoss="19.71" rerouteNo="0" devices="tripinfo_6.1" vType="paperVehicle" speedFactor="1.01" vaporized=""/>
    <tripinfo id="1.5" depart="93.00" departLane="N1A1_0" departPos="5.10" departSpeed="0.00" departDelay="16.00" arrival="283.00" arrivalLane="B1S1_0" arrivalPos="492.80" arrivalSpeed="8.84" duration="190.00" routeLength="1494.90" waitingTime="18.00" waitingCount="1" stopTime="0.00" timeLoss="40.02" rerouteNo="0" devices="tripinfo_1.5" vType="paperVehicle" speedFactor="1.17" vaporized=""/>
    <tripinfo id="6.2" depart="12.00" departLane="N1A1_0" departPos="5.10" departSpeed="0.00" departDelay="1.00" arrival="284.00" arrivalLane="B3E2_0" arrivalPos="496.00" arrivalSpeed="9.68" duration="272.00" routeLength="2495.93" waitingTime="0.00" waitingCount="0" stopTime="0.00" timeLoss="21.41" rerouteNo="0" devices="tripinfo_6.2" vType="paperVehicle" speedFactor="1.08" vaporized=""/>
    <tripinfo id="4.0" depart="9.00" departLane="W1A1_0" departPos="5.10" departSpeed="0.00" departDelay="0.00" arrival="291.00" arrivalLane="A3E1_0" arrivalPos="496.00" arrivalSpeed="9.80" duration="282.00" routeLength="1994.90" waitingTime="61.00" waitingCount="1" stopTime="0.00" timeLoss="81.69" rerouteNo="0" devices="tripinfo_4.0" vType="paperVehicle" speedFactor="0.94" vaporized=""/>
    <tripinfo id="5.0" depart="40.00" departLane="W2B1_0" departPos="5.10" departSpeed="0.00" departDelay="0.00" arrival="292.00" arrivalLane="B3E2_0" arrivalPos="496.00" arrivalSpeed="8.97" duration="252.00" routeLength="1994.90" waitingTime="32.00" waitingCount="1" stopTime="0.00" timeLoss="51.79" rerouteNo="0" devices="tripinfo_5.0" vType="paperVehicle" speedFactor="1.03" vaporized=""/>
    <tripinfo id="4.1" depart="24.00" departLane="W1A1_0" departPos="5.10" departSpeed="0.00" departDelay="0.00" arrival="293.00" arrivalLane="A3E1_0" arrivalPos="496.00" arrivalSpeed="9.40" duration="269.00" routeLength="1994.90" waitingTime="48.00" waitingCount="1" stopTime="0.00" timeLoss="69.17" rerouteNo="0" devices="tripinfo_4.1" vType="paperVehicle" speedFactor="0.94" vaporized=""/>
    <tripinfo id="1.6" depart="105.00" departLane="N1A1_0" departPos="5.10" departSpeed="0.00" departDelay="21.00" arrival="293.00" arrivalLane="B1S1_0" arrivalPos="492.80" arrivalSpeed="9.79" duration="188.00" routeLength="1494.90" waitingTime="13.00" waitingCount="1" stopTime="0.00" timeLoss="37.60" rerouteNo="0" devices="tripinfo_1.6" vType="paperVehicle" speedFactor="1.18" vaporized=""/>
    <tripinfo id="2.0" depart="49.00" departLane="N2A2_0" departPos="5.10" departSpeed="0.00" departDelay="0.00" arrival="294.00" arrivalLane="B2S2_0" arrivalPos="492.80" arrivalSpeed="9.62" duration="245.00" routeLength="1494.90" waitingTime="78.00" waitingCount="1" stopTime="0.00" timeLoss="95.50" rerouteNo="0" devices="tripinfo_2.0" vType="paperVehicle" speedFactor="0.93" vaporized=""/>
    <tripinfo id="5.1" depart="53.00" departLane="W2B1_0" departPos="5.10" departSpeed="0.00" departDelay="0.00" arrival="294.00" arrivalLane="B3E2_0" arrivalPos="496.00" arrivalSpeed="9.86" duration="241.00" routeLength="1994.90" waitingTime="20.00" waitingCount="1" stopTime="0.00" timeLoss="40.91" rerouteNo="0" devices="tripinfo_5.1" vType="paperVehicle" speedFactor="0.94" vaporized=""/>
    <tripinfo id="4.2" depart="44.00" departLane="W1A1_0" departPos="5.10" departSpeed="0.00" departDelay="0.00" arrival="296.00" arrivalLane="A3E1_0" arrivalPos="496.00" arrivalSpeed="8.79" duration="252.00" routeLength="1994.90" waitingTime="31.00" waitingCount="1" stopTime="0.00" timeLoss="51.69" rerouteNo="0" devices="tripinfo_4.2" vType="paperVehicle" speedFactor="1.12" vaporized=""/>
    <tripinfo id="5.2" depart="72.00" departLane="W2B1_0" departPos="5.10" departSpeed="0.00" departDelay="0.00" arrival="298.00" arrivalLane="B3E2_0" arrivalPos="496.00" arrivalSpeed="9.92" duration="226.00" routeLength="1994.90" waitingTime="3.00" waitingCount="1" stopTime="0.00" timeLoss="25.86" rerouteNo="0" devices="tripinfo_5.2" vType="paperVehicle" speedFactor="1.13" vaporized=""/>
    <tripinfo id="4.3" depart="76.00" departLane="W1A1_0" departPos="5.10" departSpeed="0.00" departDelay="0.00" arrival="298.00" arrivalLane="A3E1_0" arrivalPos="496.00" arrivalSpeed="9.48" duration="222.00" routeLength="1994.90" waitingTime="0.00" waitingCount="0" stopTime="0.00" timeLoss="21.78" rerouteNo="0" devices="tripinfo_4.3" vType="paperVehicle" speedFactor="1.15" vaporized=""/>
    <tripinfo id="5.3" depart="92.00" departLane="W2B1_0" departPos="5.10" departSpeed="0.00" departDelay="0.00" arrival="307.00" arrivalLane="B3E2_0" arrivalPos="496.00" arrivalSpeed="8.97" duration="215.00" routeLength="1994.90" waitingTime="0.00" waitingCount="0" stopTime="0.00" timeLoss="14.85" rerouteNo="0" devices="tripinfo_5.3" vType="paperVehicle" speedFactor="0.90" vaporized=""/>
    <tripinfo id="1.7" depart="123.00" departLane="N1A1_0" departPos="5.10" departSpeed="0.00" departDelay="19.00" arrival="307.00" arrivalLane="B1S1_0" arrivalPos="492.80" arrivalSpeed="8.96" duration="184.00" routeLength="1494.90" waitingTime="6.00" waitingCount="1" stopTime="0.00" timeLoss="34.11" rerouteNo="0" devices="tripinfo_1.7" vType="paperVehicle" speedFactor="1.04" vaporized=""/>
    <tripinfo id="2.1" depart="111.00" departLane="N2A2_0" departPos="5.10" departSpeed="0.00" departDelay="0.00" arrival="308.00" arrivalLane="B2S2_0" arrivalPos="492.80" arrivalSpeed="9.55" duration="197.00" routeLength="1494.90" waitingTime="31.00" waitingCount="1" stopTime="0.00" timeLoss="46.87" rerouteNo="0" devices="tripinfo_2.1" vType="paperVehicle" speedFactor="0.85" vaporized=""/>
    <tripinfo id="1.8" depart="126.00" departLane="N1A1_0" departPos="5.10" departSpeed="0.00" departDelay="21.00" arrival="309.00" arrivalLane="B1S1_0" arrivalPos="492.80" arrivalSpeed="9.23" duration="183.00" routeLength="1494.90" waitingTime="4.00" waitingCount="1" stopTime="0.00" timeLoss="33.17" rerouteNo="0" devices="tripinfo_1.8" vType="paperVehicle" speedFactor="1.09" vaporized=""/>
    <tripinfo id="2.2" depart="115.00" departLane="N2A2_0" departPos="5.10" departSpeed="0.00" departDelay="0.00" arrival="311.00" arrivalLane="B2S2_0" arrivalPos="492.80" arrivalSpeed="8.94" duration="196.00" routeLength="1494.90" waitingTime="30.00" waitingCount="1" stopTime="0.00" timeLoss="46.12" rerouteNo="0" devices="tripinfo_2.2" vType="paperVehicle" speedFactor="1.17" vaporized=""/>
    <tripinfo id="6.3" depart="15.00" departLane="N1A1_0" departPos="5.10" departSpeed="0.00" departDelay="1.00" arrival="316.00" arrivalLane="B3E2_0" arrivalPos="496.00" arrivalSpeed="8.93" duration="301.00" routeLength="2495.93" waitingTime="29.00" waitingCount="1" stopTime="0.00" timeLoss="50.96" rerouteNo="0" devices="tripinfo_6.3" vType="paperVehicle" speedFactor="1.03" vaporized=""/>
    <tripinfo id="1.9" depart="138.00" departLane="N1A1_0" departPos="5.10" departSpeed="0.00" departDelay="21.00" arrival="320.00" arrivalLane="B1S1_0" arrivalPos="492.80" arrivalSpeed="8.88" duration="182.00" routeLength="1494.90" waitingTime="0.00" waitingCount="0" stopTime="0.00" timeLoss="32.19" rerouteNo="0" devices="tripinfo_1.9" vType="paperVehicle" speedFactor="1.02" vaporized=""/>
    <tripinfo id="3.2" depart="108.00" departLane="N3A3_0" departPos="5.10" departSpeed="0.00" departDelay="0.00" arrival="322.00" arrivalLane="B3S3_0" arrivalPos="492.80" arrivalSpeed="9.79" duration="214.00" routeLength="1494.90" waitingTime="50.00" waitingCount="1" stopTime="0.00" timeLoss="64.39" rerouteNo="0" devices="tripinfo_3.2" vType="paperVehicle" speedFactor="0.90" vaporized=""/>
    <tripinfo id="3.3" depart="133.00" departLane="N3A3_0" departPos="5.10" departSpeed="0.00" departDelay="0.00" arrival="325.00" arrivalLane="B3S3_0" arrivalPos="492.80" arrivalSpeed="9.09" duration="192.00" routeLength="1494.90" waitingTime="24.00" waitingCount="1" stopTime="0.00" timeLoss="41.63" rerouteNo="0" devices="tripinfo_3.3" vType="paperVehicle" speedFactor="1.00" vaporized=""/>
    <tripinfo id="3.4" depart="144.00" departLane="N3A3_0" departPos="5.10" departSpeed="0.00" departDelay="0.00" arrival="328.00" arrivalLane="B3S3_0" arrivalPos="492.80" arrivalSpeed="9.29" duration="184.00" routeLength="1494.90" waitingTime="17.00" waitingCount="1" stopTime="0.00" timeLoss="33.99" rerouteNo="0" devices="tripinfo_3.4" vType="paperVehicle" speedFactor="0.97" vaporized=""/>
    <tripinfo id="3.5" depart="147.00" departLane="N3A3_0" departPos="5.10" departSpeed="0.00" departDelay="0.00" arrival="330.00" arrivalLane="B3S3_0" arrivalPos="492.80" arrivalSpeed="9.80" duration="183.00" routeLength="1494.90" waitingTime="13.00" waitingCount="1" stopTime="0.00" timeLoss="33.01" rerouteNo="0" devices="tripinfo_3.5" vType="paperVehicle" speedFactor="1.08" vaporized=""/>
    <tripinfo id="3.6" depart="153.00" departLane="N3A3_0" departPos="5.10" departSpeed="0.00" departDelay="0.00" arrival="332.00" arrivalLane="B3S3_0" arrivalPos="492.80" arrivalSpeed="9.98" duration="179.00" routeLength="1494.90" waitingTime="9.00" waitingCount="1" stopTime="0.00" timeLoss="29.05" rerouteNo="0" devices="tripinfo_3.6" vType="paperVehicle" speedFactor="0.99" vaporized=""/>
    <tripinfo id="1.10" depart="158.00" departLane="N1A1_0" departPos="5.10" departSpeed="0.00" departDelay="0.00" arrival="334.00" arrivalLane="B1S1_0" arrivalPos="492.80" arrivalSpeed="9.70" duration="176.00" routeLength="1494.90" waitingTime="0.00" waitingCount="0" stopTime="0.00" timeLoss="26.47" rerouteNo="0" devices="tripinfo_1.10" vType="paperVehicle" speedFactor="0.88" vaporized=""/>
    <tripinfo id="6.4" depart="18.00" departLane="N1A1_0" departPos="5.10" departSpeed="0.00" departDelay="2.00" arrival="350.00" arrivalLane="B3E2_0" arrivalPos="496.00" arrivalSpeed="9.28" duration="332.00" routeLength="2495.93" waitingTime="54.00" waitingCount="2" stopTime="0.00" timeLoss="81.64" rerouteNo="0" devices="tripinfo_6.4" vType="paperVehicle" speedFactor="0.83" vaporized=""/>
    <tripinfo id="6.5" depart="24.00" departLane="N1A1_0" departPos="5.10" departSpeed="0.00" departDelay="6.00" arrival="353.00" arrivalLane="B3E2_0" arrivalPos="496.00" arrivalSpeed="8.70" duration="329.00" routeLength="2495.93" waitingTime="47.00" waitingCount="2" stopTime="0.00" timeLoss="78.23" rerouteNo="0" devices="tripinfo_6.5" vType="paperVehicle" speedFactor="0.89" vaporized=""/>
    <tripinfo id="6.6" depart="32.00" departLane="N1A1_0" departPos="5.10" departSpeed="0.00" departDelay="0.00" arrival="355.00" arrivalLane="B3E2_0" arrivalPos="496.00" arrivalSpeed="9.82" duration="323.00" routeLength="2495.93" waitingTime="41.00" waitingCount="2" stopTime="0.00" timeLoss="72.22" rerouteNo="0" devices="tripinfo_6.6" vType="paperVehicle" speedFactor="0.86" vaporized=""/>
    <tripinfo id="6.7" depart="41.00" departLane="N1A1_0" departPos="5.10" departSpeed="0.00" departDelay="0.00" arrival="357.00" arrivalLane="B3E2_0" arrivalPos="496.00" arrivalSpeed="8.87" duration="316.00" routeLength="2495.93" waitingTime="32.00" waitingCount="2" stopTime="0.00" timeLoss="66.08" rerouteNo="0" devices="tripinfo_6.7" vType="paperVehicle" speedFactor="1.05" vaporized=""/>
    <tripinfo id="6.8" depart="47.00" departLane="N1A1_0" departPos="5.10" departSpeed="0.00" departDelay="0.00" arrival="360.00" arrivalLane="B3E2_0" arrivalPos="496.00" arrivalSpeed="8.70" duration="313.00" routeLength="2495.93" waitingTime="28.00" waitingCount="2" stopTime="0.00" timeLoss="61.95" rerouteNo="0" devices="tripinfo_6.8" vType="paperVehicle" speedFactor="0.99" vaporized=""/>
    <tripinfo id="6.9" depart="50.00" departLane="N1A1_0" departPos="5.10" departSpeed="0.00" departDelay="0.00" arrival="362.00" arrivalLane="B3E2_0" arrivalPos="496.00" arrivalSpeed="8.95" duration="312.00" routeLength="2495.93" waitingTime="24.00" waitingCount="2" stopTime="0.00" timeLoss="61.66" rerouteNo="0" devices="tripinfo_6.9" vType="paperVehicle" speedFactor="0.88" vaporized=""/>
    <tripinfo id="6.10" depart="53.00" departLane="N1A1_0" departPos="5.10" departSpeed="0.00" departDelay="1.00" arrival="364.00" arrivalLane="B3E2_0" arrivalPos="496.00" arrivalSpeed="9.15" duration="311.00" routeLength="2495.93" waitingTime="22.00" waitingCount="2" stopTime="0.00" timeLoss="60.42" rerouteNo="0" devices="tripinfo_6.10" vType="paperVehicle" speedFactor="0.94" vaporized=""/>
    <tripinfo id="6.11" depart="63.00" departLane="N1A1_0" departPos="5.10" departSpeed="0.00" departDelay="3.00" arrival="374.00" arrivalLane="B3E2_0" arrivalPos="496.00" arrivalSpeed="8.91" duration="311.00" routeLength="2495.93" waitingTime="26.00" waitingCount="1" stopTime="0.00" timeLoss="60.33" rerouteNo="0" devices="tripinfo_6.11" vType="paperVehicle" speedFactor="1.02" vaporized=""/>
    <tripinfo id="6.12" depart="66.00" departLane="N1A1_0" departPos="5.10" departSpeed="0.00" departDelay="4.00" arrival="376.00" arrivalLane="B3E2_0" arrivalPos="496.00" arrivalSpeed="9.28" duration="310.00" routeLength="2495.93" waitingTime="24.00" waitingCount="1" stopTime="0.00" timeLoss="59.32" rerouteNo="0" devices="tripinfo_6.12" vType="paperVehicle" speedFactor="1.01" vaporized=""/>
    <tripinfo id="1.11" depart="178.00" departLane="N1A1_0" departPos="5.10" departSpeed="0.00" departDelay="2.00" arrival="377.00" arrivalLane="B1S1_0" arrivalPos="492.80" arrivalSpeed="9.07" duration="199.00" routeLength="1494.90" waitingTime="25.00" waitingCount="1" stopTime="0.00" timeLoss="49.31" rerouteNo="0" devices="tripinfo_1.11" vType="paperVehicle" speedFactor="0.97" vaporized=""/>
    <tripinfo id="6.13" depart="72.00" departLane="N1A1_0" departPos="5.10" departSpeed="0.00" departDelay="7.00" arrival="378.00" arrivalLane="B3E2_0" arrivalPos="496.00" arrivalSpeed="9.96" duration="306.00" routeLength="2495.93" waitingTime="25.00" waitingCount="1" stopTime="0.00" timeLoss="55.42" rerouteNo="0" devices="tripinfo_6.13" vType="paperVehicle" speedFactor="0.89" vaporized=""/>
    <tripinfo id="6.14" depart="78.00" departLane="N1A1_0" departPos="5.10" departSpeed="0.00" departDelay="8.00" arrival="381.00" arrivalLane="B3E2_0" arrivalPos="496.00" arrivalSpeed="8.71" duration="303.00" routeLength="2495.93" waitingTime="22.00" waitingCount="1" stopTime="0.00" timeLoss="52.16" rerouteNo="0" devices="tripinfo_6.14" vType="paperVehicle" speedFactor="0.92" vaporized=""/>
    <tripinfo id="1.12" depart="184.00" departLane="N1A1_0" departPos="5.10" departSpeed="0.00" departDelay="6.00" arrival="382.00" arrivalLane="B1S1_0" arrivalPos="492.80" arrivalSpeed="8.71" duration="198.00" routeLength="1494.90" waitingTime="24.00" waitingCount="1" stopTime="0.00" timeLoss="48.49" rerouteNo="0" devices="tripinfo_1.12" vType="paperVehicle" speedFactor="1.06" vaporized=""/>
    <tripinfo id="6.15" depart="81.00" departLane="N1A1_0" departPos="5.10" departSpeed="0.00" departDelay="10.00" arrival="383.00" arrivalLane="B3E2_0" arrivalPos="496.00" arrivalSpeed="9.07" duration="302.00" routeLength="2495.93" waitingTime="21.00" waitingCount="1" stopTime="0.00" timeLoss="51.32" rerouteNo="0" devices="tripinfo_6.15" vType="paperVehicle" speedFactor="0.95" vaporized=""/>
    <tripinfo id="6.16" depart="84.00" departLane="N1A1_0" departPos="5.10" departSpeed="0.00" departDelay="10.00" arrival="385.00" arrivalLane="B3E2_0" arrivalPos="496.00" arrivalSpeed="9.22" duration="301.00" routeLength="2495.93" waitingTime="19.00" waitingCount="1" stopTime="0.00" timeLoss="50.32" rerouteNo="0" devices="tripinfo_6.16" vType="paperVehicle" speedFactor="0.93" vaporized=""/>
    <tripinfo id="6.17" depart="90.00" departLane="N1A1_0" departPos="5.10" departSpeed="0.00" departDelay="14.00" arrival="389.00" arrivalLane="B3E2_0" arrivalPos="496.00" arrivalSpeed="9.28" duration="299.00" routeLength="2495.93" waitingTime="18.00" waitingCount="1" stopTime="0.00" timeLoss="48.24" rerouteNo="0" devices="tripinfo_6.17" vType="paperVehicle" speedFactor="1.01" vaporized=""/>
    <tripinfo id="6.18" depart="96.00" departLane="N1A1_0" departPos="5.10" departSpeed="0.00" departDelay="16.00" arrival="393.00" arrivalLane="B3E2_0" arrivalPos="496.00" arrivalSpeed="9.65" duration="297.00" routeLength="2495.93" waitingTime="16.00" waitingCount="1" stopTime="0.00" timeLoss="46.29" rerouteNo="0" devices="tripinfo_6.18" vType="paperVehicle" speedFactor="0.99" vaporized=""/>
    <tripinfo id="6.19" depart="99.00" departLane="N1A1_0" departPos="5.10" departSpeed="0.00" departDelay="17.00" arrival="396.00" arrivalLane="B3E2_0" arrivalPos="496.00" arrivalSpeed="9.95" duration="297.00" routeLength="2495.93" waitingTime="15.00" waitingCount="1" stopTime="0.00" timeLoss="46.72" rerouteNo="0" devices="tripinfo_6.19" vType="paperVehicle" speedFactor="1.02" vaporized=""/>
    <tripinfo id="6.20" depart="102.00" departLane="N1A1_0" departPos="5.10" departSpeed="0.00" departDelay="19.00" arrival="399.00" arrivalLane="B3E2_0" arrivalPos="496.00" arrivalSpeed="9.05" duration="297.00" routeLength="2495.93" waitingTime="14.00" waitingCount="1" stopTime="0.00" timeLoss="45.98" rerouteNo="0" devices="tripinfo_6.20" vType="paperVehicle" speedFactor="0.97" vaporized=""/>
    <tripinfo id="1.13" depart="205.00" departLane="N1A1_0" departPos="5.10" departSpeed="0.00" departDelay="13.00" arrival="400.00" arrivalLane="B1S1_0" arrivalPos="492.80" arrivalSpeed="9.01" duration="195.00" routeLength="1494.90" waitingTime="21.00" waitingCount="1" stopTime="0.00" timeLoss="45.38" rerouteNo="0" devices="tripinfo_1.13" vType="paperVehicle" speedFactor="0.97" vaporized=""/>
    <tripinfo id="6.21" depart="108.00" departLane="N1A1_0" departPos="5.10" departSpeed="0.00" departDelay="21.00" arrival="403.00" arrivalLane="B3E2_0" arrivalPos="496.00" arrivalSpeed="8.70" duration="295.00" routeLength="2495.93" waitingTime="12.00" waitingCount="1" stopTime="0.00" timeLoss="44.97" rerouteNo="0" devices="tripinfo_6.21" vType="paperVehicle" speedFactor="1.10" vaporized=""/>
    <tripinfo id="1.14" depart="211.00" departLane="N1A1_0" departPos="5.10" departSpeed="0.00" departDelay="12.00" arrival="404.00" arrivalLane="B1S1_0" arrivalPos="492.80" arrivalSpeed="9.96" duration="193.00" routeLength="1494.90" waitingTime="19.00" waitingCount="1" stopTime="0.00" timeLoss="43.44" rerouteNo="0" devices="tripinfo_1.14" vType="paperVehicle" speedFactor="1.00" vaporized=""/>
    <tripinfo id="3.7" depart="171.00" departLane="N3A3_0" departPos="5.10" departSpeed="0.00" departDelay="0.00" arrival="410.00" arrivalLane="B3S3_0" arrivalPos="492.80" arrivalSpeed="9.54" duration="239.00" routeLength="1494.90" waitingTime="69.00" waitingCount="2" stopTime="0.00" timeLoss="89.37" rerouteNo="0" devices="tripinfo_3.7" vType="paperVehicle" speedFactor="1.04" vaporized=""/>
    <tripinfo id="3.8" depart="189.00" departLane="N3A3_0" departPos="5.10" departSpeed="0.00" departDelay="0.00" arrival="413.00" arrivalLane="B3S3_0" arrivalPos="492.80" arrivalSpeed="9.01" duration="224.00" routeLength="1494.90" waitingTime="50.00" waitingCount="2" stopTime="0.00" timeLoss="73.66" rerouteNo="0" devices="tripinfo_3.8" vType="paperVehicle" speedFactor="1.00" vaporized=""/>
    <tripinfo id="2.3" depart="179.00" departLane="N2A2_0" departPos="5.10" departSpeed="0.00" departDelay="0.00" arrival="415.00" arrivalLane="B2S2_0" arrivalPos="492.80" arrivalSpeed="8.94" duration="236.00" routeLength="1494.90" waitingTime="68.00" waitingCount="1" stopTime="0.00" timeLoss="86.22" rerouteNo="0" devices="tripinfo_2.3" vType="paperVehicle" speedFactor="0.98" vaporized=""/>
    <tripinfo id="3.9" depart="198.00" departLane="N3A3_0" departPos="5.10" departSpeed="0.00" departDelay="0.00" arrival="415.00" arrivalLane="B3S3_0" arrivalPos="492.80" arrivalSpeed="9.19" duration="217.00" routeLength="1494.90" waitingTime="43.00" waitingCount="1" stopTime="0.00" timeLoss="66.89" rerouteNo="0" devices="tripinfo_3.9" vType="paperVehicle" speedFactor="0.98" vaporized=""/>
    <tripinfo id="1.15" depart="223.00" departLane="N1A1_0" departPos="5.10" departSpeed="0.00" departDelay="18.00" arrival="416.00" arrivalLane="B1S1_0" arrivalPos="492.80" arrivalSpeed="9.85" duration="193.00" routeLength="1494.90" waitingTime="25.00" waitingCount="1" stopTime="0.00" timeLoss="42.69" rerouteNo="0" devices="tripinfo_1.15" vType="paperVehicle" speedFactor="0.89" vaporized=""/>
    <tripinfo id="2.4" depart="249.00" departLane="N2A2_0" departPos="5.10" departSpeed="0.00" departDelay="0.00" arrival="417.00" arrivalLane="B2S2_0" arrivalPos="492.80" arrivalSpeed="8.71" duration="168.00" routeLength="1494.90" waitingTime="1.00" waitingCount="1" stopTime="0.00" timeLoss="18.50" rerouteNo="0" devices="tripinfo_2.4" vType="paperVehicle" speedFactor="0.89" vaporized=""/>
    <tripinfo id="3.10" depart="217.00" departLane="N3A3_0" departPos="5.10" departSpeed="0.00" departDelay="0.00" arrival="418.00" arrivalLane="B3S3_0" arrivalPos="492.80" arrivalSpeed="9.68" duration="201.00" routeLength="1494.90" waitingTime="33.00" waitingCount="1" stopTime="0.00" timeLoss="50.64" rerouteNo="0" devices="tripinfo_3.10" vType="paperVehicle" speedFactor="0.91" vaporized=""/>
    <tripinfo id="2.5" depart="252.00" departLane="N2A2_0" departPos="5.10" departSpeed="0.00" departDelay="0.00" arrival="419.00" arrivalLane="B2S2_0" arrivalPos="492.80" arrivalSpeed="9.80" duration="167.00" routeLength="1494.90" waitingTime="0.00" waitingCount="0" stopTime="0.00" timeLoss="17.40" rerouteNo="0" devices="tripinfo_2.5" vType="paperVehicle" speedFactor="1.07" vaporized=""/>
    <tripinfo id="3.11" depart="230.00" departLane="N3A3_0" departPos="5.10" departSpeed="0.00" departDelay="0.00" arrival="420.00" arrivalLane="B3S3_0" arrivalPos="492.80" arrivalSpeed="9.17" duration="190.00" routeLength="1494.90" waitingTime="21.00" waitingCount="1" stopTime="0.00" timeLoss="39.94" rerouteNo="0" devices="tripinfo_3.11" vType="paperVehicle" speedFactor="0.97" vaporized=""/>
    <tripinfo id="2.6" depart="261.00" departLane="N2A2_0" departPos="5.10" departSpeed="0.00" departDelay="0.00" arrival="423.00" arrivalLane="B2S2_0" arrivalPos="492.80" arrivalSpeed="9.68" duration="162.00" routeLength="1494.90" waitingTime="0.00" waitingCount="0" stopTime="0.00" timeLoss="12.06" rerouteNo="0" devices="tripinfo_2.6" vType="paperVehicle" speedFactor="1.06" vaporized=""/>
    <tripinfo id="3.12" depart="269.00" departLane="N3A3_0" departPos="5.10" departSpeed="0.00" departDelay="0.00" arrival="432.00" arrivalLane="B3S3_0" arrivalPos="492.80" arrivalSpeed="9.91" duration="163.00" routeLength="1494.90" waitingTime="0.00" waitingCount="0" stopTime="0.00" timeLoss="12.79" rerouteNo="0" devices="tripinfo_3.12" vType="paperVehicle" speedFactor="0.96" vaporized=""/>
    <tripinfo id="1.16" depart="247.00" departLane="N1A1_0" departPos="5.10" departSpeed="0.00" departDelay="22.00" arrival="436.00" arrivalLane="B1S1_0" arrivalPos="492.80" arrivalSpeed="9.27" duration="189.00" routeLength="1494.90" waitingTime="15.00" waitingCount="1" stopTime="0.00" timeLoss="39.20" rerouteNo="0" devices="tripinfo_1.16" vType="paperVehicle" speedFactor="0.96" vaporized=""/>
    <tripinfo id="6.22" depart="111.00" departLane="N1A1_0" departPos="5.10" departSpeed="0.00" departDelay="19.00" arrival="440.00" arrivalLane="B3E2_0" arrivalPos="496.00" arrivalSpeed="9.26" duration="329.00" routeLength="2495.93" waitingTime="40.00" waitingCount="2" stopTime="0.00" timeLoss="78.67" rerouteNo="0" devices="tripinfo_6.22" vType="paperVehicle" speedFactor="1.03" vaporized=""/>
    <tripinfo id="6.23" depart="114.00" departLane="N1A1_0" departPos="5.10" departSpeed="0.00" departDelay="20.00" arrival="442.00" arrivalLane="B3E2_0" arrivalPos="496.00" arrivalSpeed="9.25" duration="328.00" routeLength="2495.93" waitingTime="39.00" waitingCount="2" stopTime="0.00" timeLoss="77.98" rerouteNo="0" devices="tripinfo_6.23" vType="paperVehicle" speedFactor="0.96" vaporized=""/>
    <tripinfo id="4.4" depart="147.00" departLane="W1A1_0" departPos="5.10" departSpeed="0.00" departDelay="0.00" arrival="443.00" arrivalLane="A3E1_0" arrivalPos="496.00" arrivalSpeed="9.85" duration="296.00" routeLength="1994.90" waitingTime="75.00" waitingCount="1" stopTime="0.00" timeLoss="95.86" rerouteNo="0" devices="tripinfo_4.4" vType="paperVehicle" speedFactor="1.12" vaporized=""/>
    <tripinfo id="6.24" depart="117.00" departLane="N1A1_0" departPos="5.10" departSpeed="0.00" departDelay="22.00" arrival="445.00" arrivalLane="B3E2_0" arrivalPos="496.00" arrivalSpeed="9.69" duration="328.00" routeLength="2495.93" waitingTime="35.00" waitingCount="2" stopTime="0.00" timeLoss="77.29" rerouteNo="0" devices="tripinfo_6.24" vType="paperVehicle" speedFactor="1.09" vaporized=""/>
    <tripinfo id="4.5" depart="151.00" departLane="W1A1_0" departPos="5.10" departSpeed="0.00" departDelay="0.00" arrival="445.00" arrivalLane="A3E1_0" arrivalPos="496.00" arrivalSpeed="9.52" duration="294.00" routeLength="1994.90" waitingTime="73.00" waitingCount="1" stopTime="0.00" timeLoss="93.95" rerouteNo="0" devices="tripinfo_4.5" vType="paperVehicle" speedFactor="1.02" vaporized=""/>
    <tripinfo id="6.25" depart="120.00" departLane="N1A1_0" departPos="5.10" departSpeed="0.00" departDelay="18.00" arrival="447.00" arrivalLane="B3E2_0" arrivalPos="496.00" arrivalSpeed="9.85" duration="327.00" routeLength="2495.93" waitingTime="33.00" waitingCount="2" stopTime="0.00" timeLoss="76.32" rerouteNo="0" devices="tripinfo_6.25" vType="paperVehicle" speedFactor="1.04" vaporized=""/>