<?xml version="1.0" encoding="UTF-8"?>

<!-- generated on 2022-02-06 23:36:29 by Eclipse SUMO sumo Version 1.10.0
<configuration xmlns:xsi="http://www.w3.org/2001/XMLSchema-instance" xsi:noNamespaceSchemaLocation="http://sumo.dlr.de/xsd/sumoConfiguration.xsd">

    <input>
        <net-file value="../2x3net.net.xml"/>
        <route-files value="../9401.1793463273482x3Routes.xml"/>
        <additional-files value="../additionals.xml"/>
    </input>

    <output>
        <tripinfo-output value="../9401.179346327348tripinfo.xml"/>
        <statistic-output value="../9401.179346327348statistics.xml"/>
    </output>

    <report>
        <no-step-log value="true"/>
    </report>

    <traci_server>
        <remote-port value="55886"/>
    </traci_server>

</configuration>
-->

<tripinfos xmlns:xsi="http://www.w3.org/2001/XMLSchema-instance" xsi:noNamespaceSchemaLocation="http://sumo.dlr.de/xsd/tripinfo_file.xsd">
    <tripinfo id="3.0" depart="13.00" departLane="N3A3_0" departPos="5.10" departSpeed="0.00" departDelay="0.00" arrival="174.00" arrivalLane="B3S3_0" arrivalPos="492.80" arrivalSpeed="9.43" duration="161.00" routeLength="1494.90" waitingTime="0.00" waitingCount="0" stopTime="0.00" timeLoss="11.15" rerouteNo="0" devices="tripinfo_3.0" vType="paperVehicle" speedFactor="0.83" vaporized=""/>
    <tripinfo id="2.0" depart="14.00" departLane="N2A2_0" departPos="5.10" departSpeed="0.00" departDelay="0.00" arrival="177.00" arrivalLane="B2S2_0" arrivalPos="492.80" arrivalSpeed="9.18" duration="163.00" routeLength="1494.90" waitingTime="0.00" waitingCount="0" stopTime="0.00" timeLoss="13.02" rerouteNo="0" devices="tripinfo_2.0" vType="paperVehicle" speedFactor="1.05" vaporized=""/>
    <tripinfo id="1.0" depart="23.00" departLane="N1A1_0" departPos="5.10" departSpeed="0.00" departDelay="2.00" arrival="185.00" arrivalLane="B1S1_0" arrivalPos="492.80" arrivalSpeed="8.86" duration="162.00" routeLength="1494.90" waitingTime="0.00" waitingCount="0" stopTime="0.00" timeLoss="12.22" rerouteNo="0" devices="tripinfo_1.0" vType="paperVehicle" speedFactor="0.86" vaporized=""/>
    <tripinfo id="3.1" depart="69.00" departLane="N3A3_0" departPos="5.10" departSpeed="0.00" departDelay="0.00" arrival="230.00" arrivalLane="B3S3_0" arrivalPos="492.80" arrivalSpeed="9.86" duration="161.00" routeLength="1494.90" waitingTime="0.00" waitingCount="0" stopTime="0.00" timeLoss="11.50" rerouteNo="0" devices="tripinfo_3.1" vType="paperVehicle" speedFactor="0.95" vaporized=""/>
    <tripinfo id="1.1" depart="87.00" departLane="N1A1_0" departPos="5.10" departSpeed="0.00" departDelay="0.00" arrival="248.00" arrivalLane="B1S1_0" arrivalPos="492.80" arrivalSpeed="9.79" duration="161.00" routeLength="1494.90" waitingTime="0.00" waitingCount="0" stopTime="0.00" timeLoss="11.39" rerouteNo="0" devices="tripinfo_1.1" vType="paperVehicle" speedFactor="1.01" vaporized=""/>
    <tripinfo id="6.0" depart="0.00" departLane="N1A1_0" departPos="5.10" departSpeed="0.00" departDelay="0.00" arrival="272.00" arrivalLane="B3E2_0" arrivalPos="496.00" arrivalSpeed="9.58" duration="272.00" routeLength="2495.93" waitingTime="0.00" waitingCount="0" stopTime="0.00" timeLoss="21.30" rerouteNo="0" devices="tripinfo_6.0" vType="paperVehicle" speedFactor="1.06" vaporized=""/>
    <tripinfo id="6.1" depart="3.00" departLane="N1A1_0" departPos="5.10" departSpeed="0.00" departDelay="0.00" arrival="274.00" arrivalLane="B3E2_0" arrivalPos="496.00" arrivalSpeed="9.06" duration="271.00" routeLength="2495.93" waitingTime="0.00" waitingCount="0" stopTime="0.00" timeLoss="20.39" rerouteNo="0" devices="tripinfo_6.1" vType="paperVehicle" speedFactor="0.94" vaporized=""/>
    <tripinfo id="6.2" depart="7.00" departLane="N1A1_0" departPos="5.10" departSpeed="0.00" departDelay="0.00" arrival="278.00" arrivalLane="B3E2_0" arrivalPos="496.00" arrivalSpeed="9.95" duration="271.00" routeLength="2495.93" waitingTime="0.00" waitingCount="0" stopTime="0.00" timeLoss="20.24" rerouteNo="0" devices="tripinfo_6.2" vType="paperVehicle" speedFactor="1.01" vaporized=""/>
    <tripinfo id="6.3" depart="10.00" departLane="N1A1_0" departPos="5.10" departSpeed="0.00" departDelay="2.00" arrival="281.00" arrivalLane="B3E2_0" arrivalPos="496.00" arrivalSpeed="9.82" duration="271.00" routeLength="2495.93" waitingTime="0.00" waitingCount="0" stopTime="0.00" timeLoss="20.51" rerouteNo="0" devices="tripinfo_6.3" vType="paperVehicle" speedFactor="1.08" vaporized=""/>
    <tripinfo id="2.1" depart="69.00" departLane="N2A2_0" departPos="5.10" departSpeed="0.00" departDelay="0.00" arrival="281.00" arrivalLane="B2S2_0" arrivalPos="492.80" arrivalSpeed="9.10" duration="212.00" routeLength="1494.90" waitingTime="45.00" waitingCount="1" stopTime="0.00" timeLoss="61.91" rerouteNo="0" devices="tripinfo_2.1" vType="paperVehicle" speedFactor="0.92" vaporized=""/>
    <tripinfo id="6.4" depart="13.00" departLane="N1A1_0" departPos="5.10" departSpeed="0.00" departDelay="4.00" arrival="283.00" arrivalLane="B3E2_0" arrivalPos="496.00" arrivalSpeed="9.92" duration="270.00" routeLength="2495.93" waitingTime="0.00" waitingCount="0" stopTime="0.00" timeLoss="20.12" rerouteNo="0" devices="tripinfo_6.4" vType="paperVehicle" speedFactor="1.03" vaporized=""/>
    <tripinfo id="2.2" depart="90.00" departLane="N2A2_0" departPos="5.10" departSpeed="0.00" departDelay="0.00" arrival="283.00" arrivalLane="B2S2_0" arrivalPos="492.80" arrivalSpeed="8.81" duration="193.00" routeLength="1494.90" waitingTime="27.00" waitingCount="1" stopTime="0.00" timeLoss="43.21" rerouteNo="0" devices="tripinfo_2.2" vType="paperVehicle" speedFactor="1.02" vaporized=""/>
    <tripinfo id="2.3" depart="116.00" departLane="N2A2_0" departPos="5.10" departSpeed="0.00" departDelay="0.00" arrival="285.00" arrivalLane="B2S2_0" arrivalPos="492.80" arrivalSpeed="9.16" duration="169.00" routeLength="1494.90" waitingTime="2.00" waitingCount="1" stopTime="0.00" timeLoss="19.29" rerouteNo="0" devices="tripinfo_2.3" vType="paperVehicle" speedFactor="1.00" vaporized=""/>
    <tripinfo id="1.2" depart="93.00" departLane="N1A1_0" departPos="5.10" departSpeed="0.00" departDelay="3.00" arrival="286.00" arrivalLane="B1S1_0" arrivalPos="492.80" arrivalSpeed="9.10" duration="193.00" routeLength="1494.90" waitingTime="27.00" waitingCount="1" stopTime="0.00" timeLoss="42.63" rerouteNo="0" devices="tripinfo_1.2" vType="paperVehicle" speedFactor="0.99" vaporized=""/>
    <tripinfo id="6.5" depart="16.00" departLane="N1A1_0" departPos="5.10" departSpeed="0.00" departDelay="0.00" arrival="287.00" arrivalLane="B3E2_0" arrivalPos="496.00" arrivalSpeed="8.73" duration="271.00" routeLength="2495.93" waitingTime="0.00" waitingCount="0" stopTime="0.00" timeLoss="20.37" rerouteNo="0" devices="tripinfo_6.5" vType="paperVehicle" speedFactor="0.89" vaporized=""/>
    <tripinfo id="2.4" depart="120.00" departLane="N2A2_0" departPos="5.10" departSpeed="0.00" departDelay="0.00" arrival="287.00" arrivalLane="B2S2_0" arrivalPos="492.80" arrivalSpeed="9.25" duration="167.00" routeLength="1494.90" waitingTime="0.00" waitingCount="0" stopTime="0.00" timeLoss="17.43" rerouteNo="0" devices="tripinfo_2.4" vType="paperVehicle" speedFactor="0.88" vaporized=""/>
    <tripinfo id="6.6" depart="20.00" departLane="N1A1_0" departPos="5.10" departSpeed="0.00" departDelay="0.00" arrival="290.00" arrivalLane="B3E2_0" arrivalPos="496.00" arrivalSpeed="9.25" duration="270.00" routeLength="2495.93" waitingTime="0.00" waitingCount="0" stopTime="0.00" timeLoss="19.56" rerouteNo="0" devices="tripinfo_6.6" vType="paperVehicle" speedFactor="0.94" vaporized=""/>
    <tripinfo id="6.7" depart="26.00" departLane="N1A1_0" departPos="5.10" departSpeed="0.00" departDelay="4.00" arrival="296.00" arrivalLane="B3E2_0" arrivalPos="496.00" arrivalSpeed="9.98" duration="270.00" routeLength="2495.93" waitingTime="0.00" waitingCount="0" stopTime="0.00" timeLoss="19.83" rerouteNo="0" devices="tripinfo_6.7" vType="paperVehicle" speedFactor="1.09" vaporized=""/>
    <tripinfo id="6.8" depart="29.00" departLane="N1A1_0" departPos="5.10" departSpeed="0.00" departDelay="4.00" arrival="301.00" arrivalLane="B3E2_0" arrivalPos="496.00" arrivalSpeed="9.02" duration="272.00" routeLength="2495.93" waitingTime="0.00" waitingCount="0" stopTime="0.00" timeLoss="21.24" rerouteNo="0" devices="tripinfo_6.8" vType="paperVehicle" speedFactor="1.03" vaporized=""/>
    <tripinfo id="6.9" depart="32.00" departLane="N1A1_0" departPos="5.10" departSpeed="0.00" departDelay="4.00" arrival="303.00" arrivalLane="B3E2_0" arrivalPos="496.00" arrivalSpeed="9.98" duration="271.00" routeLength="2495.93" waitingTime="0.00" waitingCount="0" stopTime="0.00" timeLoss="20.73" rerouteNo="0" devices="tripinfo_6.9" vType="paperVehicle" speedFactor="1.05" vaporized=""/>
    <tripinfo id="1.3" depart="129.00" departLane="N1A1_0" departPos="5.10" departSpeed="0.00" departDelay="2.00" arrival="306.00" arrivalLane="B1S1_0" arrivalPos="492.80" arrivalSpeed="9.10" duration="177.00" routeLength="1494.90" waitingTime="4.00" waitingCount="1" stopTime="0.00" timeLoss="27.16" rerouteNo="0" devices="tripinfo_1.3" vType="paperVehicle" speedFactor="0.85" vaporized=""/>
    <tripinfo id="3.2" depart="105.00" departLane="N3A3_0" departPos="5.10" departSpeed="0.00" departDelay="0.00" arrival="310.00" arrivalLane="B3S3_0" arrivalPos="492.80" arrivalSpeed="8.73" duration="205.00" routeLength="1494.90" waitingTime="38.00" waitingCount="1" stopTime="0.00" timeLoss="55.04" rerouteNo="0" devices="tripinfo_3.2" vType="paperVehicle" speedFactor="1.03" vaporized=""/>
    <tripinfo id="4.0" depart="52.00" departLane="W1A1_0" departPos="5.10" departSpeed="0.00" departDelay="0.00" arrival="313.00" arrivalLane="A3E1_0" arrivalPos="496.00" arrivalSpeed="9.87" duration="261.00" routeLength="1994.90" waitingTime="41.00" waitingCount="1" stopTime="0.00" timeLoss="61.32" rerouteNo="0" devices="tripinfo_4.0" vType="paperVehicle" speedFactor="1.16" vaporized=""/>
    <tripinfo id="3.3" depart="109.00" departLane="N3A3_0" departPos="5.10" departSpeed="0.00" departDelay="0.00" arrival="313.00" arrivalLane="B3S3_0" arrivalPos="492.80" arrivalSpeed="9.32" duration="204.00" routeLength="1494.90" waitingTime="36.00" waitingCount="1" stopTime="0.00" timeLoss="53.65" rerouteNo="0" devices="tripinfo_3.3" vType="paperVehicle" speedFactor="0.96" vaporized=""/>
    <tripinfo id="3.4" depart="127.00" departLane="N3A3_0" departPos="5.10" departSpeed="0.00" departDelay="0.00" arrival="315.00" arrivalLane="B3S3_0" arrivalPos="492.80" arrivalSpeed="8.75" duration="188.00" routeLength="1494.90" waitingTime="21.00" waitingCount="1" stopTime="0.00" timeLoss="38.38" rerouteNo="0" devices="tripinfo_3.4" vType="paperVehicle" speedFactor="1.17" vaporized=""/>
    <tripinfo id="4.1" depart="72.00" departLane="W1A1_0" departPos="5.10" departSpeed="0.00" departDelay="0.00" arrival="316.00" arrivalLane="A3E1_0" arrivalPos="496.00" arrivalSpeed="9.14" duration="244.00" routeLength="1994.90" waitingTime="24.00" waitingCount="1" stopTime="0.00" timeLoss="43.62" rerouteNo="0" devices="tripinfo_4.1" vType="paperVehicle" speedFactor="1.18" vaporized=""/>
    <tripinfo id="3.5" depart="130.00" departLane="N3A3_0" departPos="5.10" departSpeed="0.00" departDelay="0.00" arrival="317.00" arrivalLane="B3S3_0" arrivalPos="492.80" arrivalSpeed="9.92" duration="187.00" routeLength="1494.90" waitingTime="21.00" waitingCount="1" stopTime="0.00" timeLoss="37.50" rerouteNo="0" devices="tripinfo_3.5" vType="paperVehicle" speedFactor="1.02" vaporized=""/>
    <tripinfo id="4.2" depart="98.00" departLane="W1A1_0" departPos="5.10" departSpeed="0.00" departDelay="0.00" arrival="318.00" arrivalLane="A3E1_0" arrivalPos="496.00" arrivalSpeed="9.02" duration="220.00" routeLength="1994.90" waitingTime="0.00" waitingCount="0" stopTime="0.00" timeLoss="20.07" rerouteNo="0" devices="tripinfo_4.2" vType="paperVehicle" speedFactor="0.97" vaporized=""/>
    <tripinfo id="1.4" depart="153.00" departLane="N1A1_0" departPos="5.10" departSpeed="0.00" departDelay="0.00" arrival="319.00" arrivalLane="B1S1_0" arrivalPos="492.80" arrivalSpeed="9.29" duration="166.00" routeLength="1494.90" waitingTime="0.00" waitingCount="0" stopTime="0.00" timeLoss="16.02" rerouteNo="0" devices="tripinfo_1.4" vType="paperVehicle" speedFactor="1.14" vaporized=""/>
    <tripinfo id="4.3" depart="112.00" departLane="W1A1_0" departPos="5.10" departSpeed="0.00" departDelay="0.00" arrival="328.00" arrivalLane="A3E1_0" arrivalPos="496.00" arrivalSpeed="8.75" duration="216.00" routeLength="1994.90" waitingTime="0.00" waitingCount="0" stopTime="0.00" timeLoss="16.24" rerouteNo="0" devices="tripinfo_4.3" vType="paperVehicle" speedFactor="1.04" vaporized=""/>
    <tripinfo id="3.6" depart="166.00" departLane="N3A3_0" departPos="5.10" departSpeed="0.00" departDelay="0.00" arrival="328.00" arrivalLane="B3S3_0" arrivalPos="492.80" arrivalSpeed="9.50" duration="162.00" routeLength="1494.90" waitingTime="0.00" waitingCount="0" stopTime="0.00" timeLoss="12.48" rerouteNo="0" devices="tripinfo_3.6" vType="paperVehicle" speedFactor="1.02" vaporized=""/>
    <tripinfo id="4.4" depart="115.00" departLane="W1A1_0" departPos="5.10" departSpeed="0.00" departDelay="2.00" arrival="331.00" arrivalLane="A3E1_0" arrivalPos="496.00" arrivalSpeed="9.18" duration="216.00" routeLength="1994.90" waitingTime="0.00" waitingCount="0" stopTime="0.00" timeLoss="15.71" rerouteNo="0" devices="tripinfo_4.4" vType="paperVehicle" speedFactor="1.09" vaporized=""/>
    <tripinfo id="6.10" depart="35.00" departLane="N1A1_0" departPos="5.10" departSpeed="0.00" departDelay="5.00" arrival="337.00" arrivalLane="B3E2_0" arrivalPos="496.00" arrivalSpeed="9.75" duration="302.00" routeLength="2495.93" waitingTime="27.00" waitingCount="1" stopTime="0.00" timeLoss="51.16" rerouteNo="0" devices="tripinfo_6.10" vType="paperVehicle" speedFactor="1.12" vaporized=""/>
    <tripinfo id="6.11" depart="38.00" departLane="N1A1_0" departPos="5.10" departSpeed="0.00" departDelay="4.00" arrival="339.00" arrivalLane="B3E2_0" arrivalPos="496.00" arrivalSpeed="9.13" duration="301.00" routeLength="2495.93" waitingTime="25.00" waitingCount="1" stopTime="0.00" timeLoss="50.50" rerouteNo="0" devices="tripinfo_6.11" vType="paperVehicle" speedFactor="0.99" vaporized=""/>
    <tripinfo id="6.12" depart="41.00" departLane="N1A1_0" departPos="5.10" departSpeed="0.00" departDelay="1.00" arrival="341.00" arrivalLane="B3E2_0" arrivalPos="496.00" arrivalSpeed="9.65" duration="300.00" routeLength="2495.93" waitingTime="23.00" waitingCount="1" stopTime="0.00" timeLoss="49.30" rerouteNo="0" devices="tripinfo_6.12" vType="paperVehicle" speedFactor="0.93" vaporized=""/>
    <tripinfo id="1.5" depart="177.00" departLane="N1A1_0" departPos="5.10" departSpeed="0.00" departDelay="3.00" arrival="341.00" arrivalLane="B1S1_0" arrivalPos="492.80" arrivalSpeed="9.11" duration="164.00" routeLength="1494.90" waitingTime="0.00" waitingCount="0" stopTime="0.00" timeLoss="13.78" rerouteNo="0" devices="tripinfo_1.5" vType="paperVehicle" speedFactor="0.91" vaporized=""/>
    <tripinfo id="6.13" depart="47.00" departLane="N1A1_0" departPos="5.10" departSpeed="0.00" departDelay="0.00" arrival="343.00" arrivalLane="B3E2_0" arrivalPos="496.00" arrivalSpeed="8.91" duration="296.00" routeLength="2495.93" waitingTime="20.00" waitingCount="1" stopTime="0.00" timeLoss="45.42" rerouteNo="0" devices="tripinfo_6.13" vType="paperVehicle" speedFactor="0.88" vaporized=""/>
    <tripinfo id="6.14" depart="50.00" departLane="N1A1_0" departPos="5.10" departSpeed="0.00" departDelay="0.00" arrival="346.00" arrivalLane="B3E2_0" arrivalPos="496.00" arrivalSpeed="9.83" duration="296.00" routeLength="2495.93" waitingTime="18.00" waitingCount="1" stopTime="0.00" timeLoss="44.96" rerouteNo="0" devices="tripinfo_6.14" vType="paperVehicle" speedFactor="0.94" vaporized=""/>
    <tripinfo id="6.15" depart="53.00" departLane="N1A1_0" departPos="5.10" departSpeed="0.00" departDelay="2.00" arrival="348.00" arrivalLane="B3E2_0" arrivalPos="496.00" arrivalSpeed="9.39" duration="295.00" routeLength="2495.93" waitingTime="17.00" waitingCount="1" stopTime="0.00" timeLoss="44.13" rerouteNo="0" devices="tripinfo_6.15" vType="paperVehicle" speedFactor="0.94" vaporized=""/>
    <tripinfo id="6.16" depart="56.00" departLane="N1A1_0" departPos="5.10" departSpeed="0.00" departDelay="4.00" arrival="350.00" arrivalLane="B3E2_0" arrivalPos="496.00" arrivalSpeed="9.41" duration="294.00" routeLength="2495.93" waitingTime="16.00" waitingCount="1" stopTime="0.00" timeLoss="43.24" rerouteNo="0" devices="tripinfo_6.16" vType="paperVehicle" speedFactor="1.02" vaporized=""/>
    <tripinfo id="6.17" depart="59.00" departLane="N1A1_0" departPos="5.10" departSpeed="0.00" departDelay="5.00" arrival="360.00" arrivalLane="B3E2_0" arrivalPos="496.00" arrivalSpeed="9.85" duration="301.00" routeLength="2495.93" waitingTime="25.00" waitingCount="1" stopTime="0.00" timeLoss="50.33" rerouteNo="0" devices="tripinfo_6.17" vType="paperVehicle" speedFactor="1.01" vaporized=""/>
    <tripinfo id="6.18" depart="62.00" departLane="N1A1_0" departPos="5.10" departSpeed="0.00" departDelay="4.00" arrival="362.00" arrivalLane="B3E2_0" arrivalPos="496.00" arrivalSpeed="9.95" duration="300.00" routeLength="2495.93" waitingTime="23.00" waitingCount="1" stopTime="0.00" timeLoss="49.22" rerouteNo="0" devices="tripinfo_6.18" vType="paperVehicle" speedFactor="0.98" vaporized=""/>
    <tripinfo id="6.19" depart="65.00" departLane="N1A1_0" departPos="5.10" departSpeed="0.00" departDelay="6.00" arrival="364.00" arrivalLane="B3E2_0" arrivalPos="496.00" arrivalSpeed="9.59" duration="299.00" routeLength="2495.93" waitingTime="20.00" waitingCount="1" stopTime="0.00" timeLoss="48.17" rerouteNo="0" devices="tripinfo_6.19" vType="paperVehicle" speedFactor="0.89" vaporized=""/>
    <tripinfo id="6.20" depart="68.00" departLane="N1A1_0" departPos="5.10" departSpeed="0.00" departDelay="8.00" arrival="366.00" arrivalLane="B3E2_0" arrivalPos="496.00" arrivalSpeed="8.76" duration="298.00" routeLength="2495.93" waitingTime="19.00" waitingCount="1" stopTime="0.00" timeLoss="47.56" rerouteNo="0" devices="tripinfo_6.20" vType="paperVehicle" speedFactor="0.83" vaporized=""/>
    <tripinfo id="6.21" depart="71.00" departLane="N1A1_0" departPos="5.10" departSpeed="0.00" departDelay="3.00" arrival="369.00" arrivalLane="B3E2_0" arrivalPos="496.00" arrivalSpeed="9.88" duration="298.00" routeLength="2495.93" waitingTime="17.00" waitingCount="1" stopTime="0.00" timeLoss="47.06" rerouteNo="0" devices="tripinfo_6.21" vType="paperVehicle" speedFactor="0.87" vaporized=""/>
    <tripinfo id="6.22" depart="74.00" departLane="N1A1_0" departPos="5.10" departSpeed="0.00" departDelay="5.00" arrival="371.00" arrivalLane="B3E2_0" arrivalPos="496.00" arrivalSpeed="9.39" duration="297.00" routeLength="2495.93" waitingTime="16.00" waitingCount="1" stopTime="0.00" timeLoss="46.21" rerouteNo="0" devices="tripinfo_6.22" vType="paperVehicle" speedFactor="1.13" vaporized=""/>
    <tripinfo id="6.23" depart="77.00" departLane="N1A1_0" departPos="5.10" departSpeed="0.00" departDelay="6.00" arrival="373.00" arrivalLane="B3E2_0" arrivalPos="496.00" arrivalSpeed="9.00" duration="296.00" routeLength="2495.93" waitingTime="17.00" waitingCount="1" stopTime="0.00" timeLoss="44.90" rerouteNo="0" devices="tripinfo_6.23" vType="paperVehicle" speedFactor="0.93" vaporized=""/>
    <tripinfo id="6.24" depart="80.00" departLane="N1A1_0" departPos="5.10" departSpeed="0.00" departDelay="1.00" arrival="375.00" arrivalLane="B3E2_0" arrivalPos="496.00" arrivalSpeed="8.96" duration="295.00" routeLength="2495.93" waitingTime="16.00" waitingCount="2" stopTime="0.00" timeLoss="44.85" rerouteNo="0" devices="tripinfo_6.24" vType="paperVehicle" speedFactor="1.15" vaporized=""/>
    <tripinfo id="6.25" depart="90.00" departLane="N1A1_0" departPos="5.10" departSpeed="0.00" departDelay="3.00" arrival="377.00" arrivalLane="B3E2_0" arrivalPos="496.00" arrivalSpeed="8.71" duration="287.00" routeLength="2495.93" waitingTime="11.00" waitingCount="1" stopTime="0.00" timeLoss="36.91" rerouteNo="0" devices="tripinfo_6.25" vType="paperVehicle" speedFactor="1.17" vaporized=""/>
    <tripinfo id="2.5" depart="184.00" departLane="N2A2_0" departPos="5.10" departSpeed="0.00" departDelay="0.00" arrival="392.00" arrivalLane="B2S2_0" arrivalPos="492.80" arrivalSpeed="9.92" duration="208.00" routeLength="1494.90" waitingTime="37.00" waitingCount="1" stopTime="0.00" timeLoss="57.57" rerouteNo="0" devices="tripinfo_2.5" vType="paperVehicle" speedFactor="1.02" vaporized=""/>
    <tripinfo id="1.6" depart="186.00" departLane="N1A1_0" departPos="5.10" departSpeed="0.00" departDelay="5.00" arrival="394.00" arrivalLane="B1S1_0" arrivalPos="492.80" arrivalSpeed="8.75" duration="208.00" routeLength="1494.90" waitingTime="40.00" waitingCount="1" stopTime="0.00" timeLoss="58.46" rerouteNo="0" devices="tripinfo_1.6" vType="paperVehicle" speedFactor="1.02" vaporized=""/>
    <tripinfo id="2.6" depart="213.00" departLane="N2A2_0" departPos="5.10" departSpeed="0.00" departDelay="0.00" arrival="394.00" arrivalLane="B2S2_0" arrivalPos="492.80" arrivalSpeed="8.83" duration="181.00" routeLength="1494.90" waitingTime="14.00" waitingCount="1" stopTime="0.00" timeLoss="30.77" rerouteNo="0" devices="tripinfo_2.6" vType="paperVehicle" speedFactor="1.00" vaporized=""/>
    <tripinfo id="6.26" depart="98.00" departLane="N1A1_0" departPos="5.10" departSpeed="0.00" departDelay="0.00" arrival="396.00" arrivalLane="B3E2_0" arrivalPos="496.00" arrivalSpeed="8.76" duration="298.00" routeLength="2495.93" waitingTime="21.00" waitingCount="1" stopTime="0.00" timeLoss="47.47" rerouteNo="0" devices="tripinfo_6.26" vType="paperVehicle" speedFactor="1.18" vaporized=""/>
    <tripinfo id="6.27" depart="103.00" departLane="N1A1_0" departPos="5.10" departSpeed="0.00" departDelay="0.00" arrival="398.00" arrivalLane="B3E2_0" arrivalPos="496.00" arrivalSpeed="8.72" duration="295.00" routeLength="2495.93" waitingTime="20.00" waitingCount="1" stopTime="0.00" timeLoss="44.71" rerouteNo="0" devices="tripinfo_6.27" vType="paperVehicle" speedFactor="1.10" vaporized=""/>
    <tripinfo id="6.28" depart="106.00" departLane="N1A1_0" departPos="5.10" departSpeed="0.00" departDelay="2.00" arrival="401.00" arrivalLane="B3E2_0" arrivalPos="496.00" arrivalSpeed="9.72" duration="295.00" routeLength="2495.93" waitingTime="18.00" waitingCount="1" stopTime="0.00" timeLoss="44.52" rerouteNo="0" devices="tripinfo_6.28" vType="paperVehicle" speedFactor="0.90" vaporized=""/>
    <tripinfo id="1.7" depart="195.00" departLane="N1A1_0" departPos="5.10" departSpeed="0.00" departDelay="0.00" arrival="401.00" arrivalLane="B1S1_0" arrivalPos="492.80" arrivalSpeed="9.06" duration="206.00" routeLength="1494.90" waitingTime="36.00" waitingCount="1" stopTime="0.00" timeLoss="56.49" rerouteNo="0" devices="tripinfo_1.7" vType="paperVehicle" speedFactor="0.96" vaporized=""/>
    <tripinfo id="6.29" depart="109.00" departLane="N1A1_0" departPos="5.10" departSpeed="0.00" departDelay="0.00" arrival="404.00" arrivalLane="B3E2_0" arrivalPos="496.00" arrivalSpeed="8.88" duration="295.00" routeLength="2495.93" waitingTime="17.00" waitingCount="1" stopTime="0.00" timeLoss="44.41" rerouteNo="0" devices="tripinfo_6.29" vType="paperVehicle" speedFactor="1.09" vaporized=""/>
    <tripinfo id="2.7" depart="242.00" departLane="N2A2_0" departPos="5.10" departSpeed="0.00" departDelay="0.00" arrival="404.00" arrivalLane="B2S2_0" arrivalPos="492.80" arrivalSpeed="9.34" duration="162.00" routeLength="1494.90" waitingTime="0.00" waitingCount="0" stopTime="0.00" timeLoss="12.12" rerouteNo="0" devices="tripinfo_2.7" vType="paperVehicle" speedFactor="0.89" vaporized=""/>
    <tripinfo id="6.30" depart="112.00" departLane="N1A1_0" departPos="5.10" departSpeed="0.00" departDelay="2.00" arrival="406.00" arrivalLane="B3E2_0" arrivalPos="496.00" arrivalSpeed="9.67" duration="294.00" routeLength="2495.93" waitingTime="15.00" waitingCount="1" stopTime="0.00" timeLoss="43.92" rerouteNo="0" devices="tripinfo_6.30" vType="paperVehicle" speedFactor="1.04" vaporized=""/>
    <tripinfo id="2.8" depart="246.00" departLane="N2A2_0" departPos="5.10" departSpeed="0.00" departDelay="0.00" arrival="408.00" arrivalLane="B2S2_0" arrivalPos="492.80" arrivalSpeed="9.60" duration="162.00" routeLength="1494.90" waitingTime="0.00" waitingCount="0" stopTime="0.00" timeLoss="12.23" rerouteNo="0" devices="tripinfo_2.8" vType="paperVehicle" speedFactor="0.83" vaporized=""/>
    <tripinfo id="6.31" depart="117.00" departLane="N1A1_0" departPos="5.10" departSpeed="0.00" departDelay="0.00" arrival="409.00" arrivalLane="B3E2_0" arrivalPos="496.00" arrivalSpeed="9.52" duration="292.00" routeLength="2495.93" waitingTime="11.00" waitingCount="1" stopTime="0.00" timeLoss="41.37" rerouteNo="0" devices="tripinfo_6.31" vType="paperVehicle" speedFactor="0.90" vaporized=""/>
    <tripinfo id="6.32" depart="126.00" departLane="N1A1_0" departPos="5.10" departSpeed="0.00" departDelay="0.00" arrival="411.00" arrivalLane="B3E2_0" arrivalPos="496.00" arrivalSpeed="9.58" duration="285.00" routeLength="2495.93" waitingTime="4.00" waitingCount="1" stopTime="0.00" timeLoss="34.32" rerouteNo="0" devices="tripinfo_6.32" vType="paperVehicle" speedFactor="0.85" vaporized=""/>
    <tripinfo id="1.8" depart="219.00" departLane="N1A1_0" departPos="5.10" departSpeed="0.00" departDelay="0.00" arrival="413.00" arrivalLane="B1S1_0" arrivalPos="492.80" arrivalSpeed="8.94" duration="194.00" routeLength="1494.90" waitingTime="22.00" waitingCount="1" stopTime="0.00" timeLoss="43.98" rerouteNo="0" devices="tripinfo_1.8" vType="paperVehicle" speedFactor="0.97" vaporized=""/>
    <tripinfo id="6.33" depart="132.00" departLane="N1A1_0" departPos="5.10" departSpeed="0.00" departDelay="2.00" arrival="416.00" arrivalLane="B3E2_0" arrivalPos="496.00" arrivalSpeed="9.62" duration="284.00" routeLength="2495.93" waitingTime="2.00" waitingCount="1" stopTime="0.00" timeLoss="33.96" rerouteNo="0" devices="tripinfo_6.33" vType="paperVehicle" speedFactor="1.10" vaporized=""/>
    <tripinfo id="6.34" depart="143.00" departLane="N1A1_0" departPos="5.10" departSpeed="0.00" departDelay="0.00" arrival="419.00" arrivalLane="B3E2_0" arrivalPos="496.00" arrivalSpeed="9.13" duration="276.00" routeLength="2495.93" waitingTime="0.00" waitingCount="0" stopTime="0.00" timeLoss="25.66" rerouteNo="0" devices="tripinfo_6.34" vType="paperVehicle" speedFactor="1.00" vaporized=""/>
    <tripinfo id="6.35" depart="146.00" departLane="N1A1_0" departPos="5.10" departSpeed="0.00" departDelay="0.00" arrival="421.00" arrivalLane="B3E2_0" arrivalPos="496.00" arrivalSpeed="9.12" duration="275.00" routeLength="2495.93" waitingTime="0.00" waitingCount="0" stopTime="0.00" timeLoss="24.49" rerouteNo="0" devices="tripinfo_6.35" vType="paperVehicle" speedFactor="1.00" vaporized=""/>
    <tripinfo id="6.36" depart="149.00" departLane="N1A1_0" departPos="5.10" departSpeed="0.00" departDelay="1.00" arrival="424.00" arrivalLane="B3E2_0" arrivalPos="496.00" arrivalSpeed="9.54" duration="275.00" routeLength="2495.93" waitingTime="0.00" waitingCount="0" stopTime="0.00" timeLoss="24.66" rerouteNo="0" devices="tripinfo_6.36" vType="paperVehicle" speedFactor="0.90" vaporized=""/>
    <tripinfo id="6.37" depart="156.00" departLane="N1A1_0" departPos="5.10" departSpeed="0.00" departDelay="3.00" arrival="429.00" arrivalLane="B3E2_0" arrivalPos="496.00" arrivalSpeed="8.92" duration="273.00" routeLength="2495.93" waitingTime="0.00" waitingCount="0" stopTime="0.00" timeLoss="22.09" rerouteNo="0" devices="tripinfo_6.37" vType="paperVehicle" speedFactor="1.02" vaporized=""/>
    <tripinfo id="6.38" depart="159.00" departLane="N1A1_0" departPos="5.10" departSpeed="0.00" departDelay="2.00" arrival="432.00" arrivalLane="B3E2_0" arrivalPos="496.00" arrivalSpeed="8.91" duration="273.00" routeLength="2495.93" waitingTime="0.00" waitingCount="0" stopTime="0.00" timeLoss="22.60" rerouteNo="0" devices="tripinfo_6.38" vType="paperVehicle" speedFactor="1.08" vaporized=""/>
    <tripinfo id="6.39" depart="162.00" departLane="N1A1_0" departPos="5.10" departSpeed="0.00" departDelay="4.00" arrival="434.00" arrivalLane="B3E2_0" arrivalPos="496.00" arrivalSpeed="8.82" duration="272.00" routeLength="2495.93" waitingTime="0.00" waitingCount="0" stopTime="0.00" timeLoss="21.93" rerouteNo="0" devices="tripinfo_6.39" vType="paperVehicle" speedFactor="1.12" vaporized=""/>
    <tripinfo id="6.40" depart="168.00" departLane="N1A1_0" departPos="5.10" departSpeed="0.00" departDelay="0.00" arrival="438.00" arrivalLane="B3E2_0" arrivalPos="496.00" arrivalSpeed="9.45" duration="270.00" routeLength="2495.93" waitingTime="0.00" waitingCount="0" stopTime="0.00" timeLoss="19.77" rerouteNo="0" devices="tripinfo_6.40" vType="paperVehicle" speedFactor="0.99" vaporized=""/>
    <tripinfo id="4.5" depart="206.00" departLane="W1A1_0" departPos="5.10" departSpeed="0.00" departDelay="0.00" arrival="456.00" arrivalLane="A3E1_0" arrivalPos="496.00" arrivalSpeed="9.47" duration="250.00" routeLength="1994.90" waitingTime="30.00" waitingCount="1" stopTime="0.00" timeLoss="50.40" rerouteNo="0" devices="tripinfo_4.5" vType="paperVehicle" speedFactor="0.98" vaporized=""/>
    <tripinfo id="4.6" depart="213.00" departLane="W1A1_0" departPos="5.10" departSpeed="0.00" departDelay="0.00" arrival="459.00" arrivalLane="A3E1_0" arrivalPos="496.00" arrivalSpeed="9.97" duration="246.00" routeLength="1994.90" waitingTime="25.00" waitingCount="1" stopTime="0.00" timeLoss="45.69" rerouteNo="0" devices="tripinfo_4.6" vType="paperVehicle" speedFactor="1.02" vaporized=""/>