<?xml version="1.0" encoding="UTF-8"?>

<!-- generated on 2022-01-28 08:48:00 by Eclipse SUMO sumo Version 1.10.0
<configuration xmlns:xsi="http://www.w3.org/2001/XMLSchema-instance" xsi:noNamespaceSchemaLocation="http://sumo.dlr.de/xsd/sumoConfiguration.xsd">

    <input>
        <net-file value="C:\Users\Marcus\Desktop\Hauptordner\Studium\Masterstudium\3.%20Semester\Projekt_Sim-Opt\Traffic_Simulation\GridNetwork\2x3net.net.xml"/>
        <route-files value="C:\Users\Marcus\Desktop\Hauptordner\Studium\Masterstudium\3.%20Semester\Projekt_Sim-Opt\Traffic_Simulation\GridNetwork\2x3Routes.xml"/>
        <additional-files value="C:\Users\Marcus\Desktop\Hauptordner\Studium\Masterstudium\3.%20Semester\Projekt_Sim-Opt\Traffic_Simulation\GridNetwork\additionals.xml"/>
    </input>

    <output>
        <tripinfo-output value="../tripinfo.xml"/>
        <statistic-output value="../statistics.xml"/>
    </output>

    <report>
        <no-step-log value="true"/>
    </report>

    <traci_server>
        <remote-port value="59943"/>
    </traci_server>

</configuration>
-->

<tripinfos xmlns:xsi="http://www.w3.org/2001/XMLSchema-instance" xsi:noNamespaceSchemaLocation="http://sumo.dlr.de/xsd/tripinfo_file.xsd">
    <tripinfo id="1.0" depart="29.00" departLane="N1A1_0" departPos="5.10" departSpeed="0.00" departDelay="3.00" arrival="192.00" arrivalLane="B1S1_0" arrivalPos="492.80" arrivalSpeed="9.98" duration="163.00" routeLength="1494.90" waitingTime="0.00" waitingCount="0" stopTime="0.00" timeLoss="12.62" rerouteNo="0" devices="tripinfo_1.0" vType="paperVehicle" speedFactor="1.05" vaporized=""/>
    <tripinfo id="1.1" depart="50.00" departLane="N1A1_0" departPos="5.10" departSpeed="0.00" departDelay="0.00" arrival="238.00" arrivalLane="B1S1_0" arrivalPos="492.80" arrivalSpeed="9.47" duration="188.00" routeLength="1494.90" waitingTime="21.00" waitingCount="1" stopTime="0.00" timeLoss="37.86" rerouteNo="0" devices="tripinfo_1.1" vType="paperVehicle" speedFactor="1.05" vaporized=""/>
    <tripinfo id="1.2" depart="56.00" departLane="N1A1_0" departPos="5.10" departSpeed="0.00" departDelay="0.00" arrival="242.00" arrivalLane="B1S1_0" arrivalPos="492.80" arrivalSpeed="9.05" duration="186.00" routeLength="1494.90" waitingTime="17.00" waitingCount="1" stopTime="0.00" timeLoss="36.41" rerouteNo="0" devices="tripinfo_1.2" vType="paperVehicle" speedFactor="0.99" vaporized=""/>
    <tripinfo id="1.3" depart="70.00" departLane="N1A1_0" departPos="5.10" departSpeed="0.00" departDelay="2.00" arrival="250.00" arrivalLane="B1S1_0" arrivalPos="492.80" arrivalSpeed="9.29" duration="180.00" routeLength="1494.90" waitingTime="9.00" waitingCount="1" stopTime="0.00" timeLoss="30.27" rerouteNo="0" devices="tripinfo_1.3" vType="paperVehicle" speedFactor="0.94" vaporized=""/>
    <tripinfo id="2.0" depart="76.00" departLane="N2A2_0" departPos="5.10" departSpeed="0.00" departDelay="0.00" arrival="254.00" arrivalLane="B2S2_0" arrivalPos="492.80" arrivalSpeed="9.18" duration="178.00" routeLength="1494.90" waitingTime="11.00" waitingCount="1" stopTime="0.00" timeLoss="28.45" rerouteNo="0" devices="tripinfo_2.0" vType="paperVehicle" speedFactor="1.16" vaporized=""/>
    <tripinfo id="1.4" depart="78.00" departLane="N1A1_0" departPos="5.10" departSpeed="0.00" departDelay="0.00" arrival="256.00" arrivalLane="B1S1_0" arrivalPos="492.80" arrivalSpeed="9.88" duration="178.00" routeLength="1494.90" waitingTime="7.00" waitingCount="1" stopTime="0.00" timeLoss="27.88" rerouteNo="0" devices="tripinfo_1.4" vType="paperVehicle" speedFactor="1.02" vaporized=""/>
    <tripinfo id="6.0" depart="1.00" departLane="N1A1_0" departPos="5.10" departSpeed="0.00" departDelay="0.00" arrival="272.00" arrivalLane="B3E2_0" arrivalPos="496.00" arrivalSpeed="9.04" duration="271.00" routeLength="2495.93" waitingTime="0.00" waitingCount="0" stopTime="0.00" timeLoss="20.55" rerouteNo="0" devices="tripinfo_6.0" vType="paperVehicle" speedFactor="1.06" vaporized=""/>
    <tripinfo id="6.1" depart="4.00" departLane="N1A1_0" departPos="5.10" departSpeed="0.00" departDelay="1.00" arrival="276.00" arrivalLane="B3E2_0" arrivalPos="496.00" arrivalSpeed="9.28" duration="272.00" routeLength="2495.93" waitingTime="0.00" waitingCount="0" stopTime="0.00" timeLoss="21.80" rerouteNo="0" devices="tripinfo_6.1" vType="paperVehicle" speedFactor="0.94" vaporized=""/>
    <tripinfo id="1.5" depart="91.00" departLane="N1A1_0" departPos="5.10" departSpeed="0.00" departDelay="0.00" arrival="281.00" arrivalLane="B1S1_0" arrivalPos="492.80" arrivalSpeed="10.00" duration="190.00" routeLength="1494.90" waitingTime="19.00" waitingCount="1" stopTime="0.00" timeLoss="39.65" rerouteNo="0" devices="tripinfo_1.5" vType="paperVehicle" speedFactor="0.83" vaporized=""/>
    <tripinfo id="6.2" depart="13.00" departLane="N1A1_0" departPos="5.10" departSpeed="0.00" departDelay="0.00" arrival="283.00" arrivalLane="B3E2_0" arrivalPos="496.00" arrivalSpeed="8.89" duration="270.00" routeLength="2495.93" waitingTime="0.00" waitingCount="0" stopTime="0.00" timeLoss="19.45" rerouteNo="0" devices="tripinfo_6.2" vType="paperVehicle" speedFactor="1.08" vaporized=""/>
    <tripinfo id="1.6" depart="97.00" departLane="N1A1_0" departPos="5.10" departSpeed="0.00" departDelay="1.00" arrival="286.00" arrivalLane="B1S1_0" arrivalPos="492.80" arrivalSpeed="9.44" duration="189.00" routeLength="1494.90" waitingTime="16.00" waitingCount="1" stopTime="0.00" timeLoss="38.88" rerouteNo="0" devices="tripinfo_1.6" vType="paperVehicle" speedFactor="0.95" vaporized=""/>
    <tripinfo id="6.3" depart="23.00" departLane="N1A1_0" departPos="5.10" departSpeed="0.00" departDelay="0.00" arrival="293.00" arrivalLane="B3E2_0" arrivalPos="496.00" arrivalSpeed="9.91" duration="270.00" routeLength="2495.93" waitingTime="0.00" waitingCount="0" stopTime="0.00" timeLoss="19.46" rerouteNo="0" devices="tripinfo_6.3" vType="paperVehicle" speedFactor="1.03" vaporized=""/>
    <tripinfo id="6.4" depart="26.00" departLane="N1A1_0" departPos="5.10" departSpeed="0.00" departDelay="2.00" arrival="296.00" arrivalLane="B3E2_0" arrivalPos="496.00" arrivalSpeed="9.94" duration="270.00" routeLength="2495.93" waitingTime="0.00" waitingCount="0" stopTime="0.00" timeLoss="19.93" rerouteNo="0" devices="tripinfo_6.4" vType="paperVehicle" speedFactor="0.83" vaporized=""/>
    <tripinfo id="4.0" depart="9.00" departLane="W1A1_0" departPos="5.10" departSpeed="0.00" departDelay="0.00" arrival="319.00" arrivalLane="A3E1_0" arrivalPos="496.00" arrivalSpeed="9.03" duration="310.00" routeLength="1994.90" waitingTime="87.00" waitingCount="2" stopTime="0.00" timeLoss="110.26" rerouteNo="0" devices="tripinfo_4.0" vType="paperVehicle" speedFactor="1.01" vaporized=""/>
    <tripinfo id="4.1" depart="94.00" departLane="W1A1_0" departPos="5.10" departSpeed="0.00" departDelay="0.00" arrival="321.00" arrivalLane="A3E1_0" arrivalPos="496.00" arrivalSpeed="9.45" duration="227.00" routeLength="1994.90" waitingTime="8.00" waitingCount="1" stopTime="0.00" timeLoss="27.28" rerouteNo="0" devices="tripinfo_4.1" vType="paperVehicle" speedFactor="0.92" vaporized=""/>
    <tripinfo id="6.5" depart="32.00" departLane="N1A1_0" departPos="5.10" departSpeed="0.00" departDelay="5.00" arrival="333.00" arrivalLane="B3E2_0" arrivalPos="496.00" arrivalSpeed="9.92" duration="301.00" routeLength="2495.93" waitingTime="27.00" waitingCount="1" stopTime="0.00" timeLoss="50.22" rerouteNo="0" devices="tripinfo_6.5" vType="paperVehicle" speedFactor="0.89" vaporized=""/>
    <tripinfo id="6.6" depart="41.00" departLane="N1A1_0" departPos="5.10" departSpeed="0.00" departDelay="0.00" arrival="335.00" arrivalLane="B3E2_0" arrivalPos="496.00" arrivalSpeed="9.69" duration="294.00" routeLength="2495.93" waitingTime="20.00" waitingCount="1" stopTime="0.00" timeLoss="43.99" rerouteNo="0" devices="tripinfo_6.6" vType="paperVehicle" speedFactor="0.86" vaporized=""/>
    <tripinfo id="5.0" depart="28.00" departLane="W2B1_0" departPos="5.10" departSpeed="0.00" departDelay="0.00" arrival="338.00" arrivalLane="B3E2_0" arrivalPos="496.00" arrivalSpeed="9.98" duration="310.00" routeLength="1994.90" waitingTime="85.00" waitingCount="2" stopTime="0.00" timeLoss="109.68" rerouteNo="0" devices="tripinfo_5.0" vType="paperVehicle" speedFactor="0.94" vaporized=""/>
    <tripinfo id="5.1" depart="42.00" departLane="W2B1_0" departPos="5.10" departSpeed="0.00" departDelay="0.00" arrival="340.00" arrivalLane="B3E2_0" arrivalPos="496.00" arrivalSpeed="8.81" duration="298.00" routeLength="1994.90" waitingTime="70.00" waitingCount="2" stopTime="0.00" timeLoss="98.35" rerouteNo="0" devices="tripinfo_5.1" vType="paperVehicle" speedFactor="1.09" vaporized=""/>
    <tripinfo id="6.7" depart="44.00" departLane="N1A1_0" departPos="5.10" departSpeed="0.00" departDelay="0.00" arrival="343.00" arrivalLane="B3E2_0" arrivalPos="496.00" arrivalSpeed="9.45" duration="299.00" routeLength="2495.93" waitingTime="26.00" waitingCount="1" stopTime="0.00" timeLoss="48.15" rerouteNo="0" devices="tripinfo_6.7" vType="paperVehicle" speedFactor="1.03" vaporized=""/>
    <tripinfo id="1.7" depart="183.00" departLane="N1A1_0" departPos="5.10" departSpeed="0.00" departDelay="0.00" arrival="345.00" arrivalLane="B1S1_0" arrivalPos="492.80" arrivalSpeed="9.31" duration="162.00" routeLength="1494.90" waitingTime="0.00" waitingCount="0" stopTime="0.00" timeLoss="12.27" rerouteNo="0" devices="tripinfo_1.7" vType="paperVehicle" speedFactor="0.96" vaporized=""/>
    <tripinfo id="6.8" depart="53.00" departLane="N1A1_0" departPos="5.10" departSpeed="0.00" departDelay="0.00" arrival="348.00" arrivalLane="B3E2_0" arrivalPos="496.00" arrivalSpeed="9.28" duration="295.00" routeLength="2495.93" waitingTime="20.00" waitingCount="1" stopTime="0.00" timeLoss="44.71" rerouteNo="0" devices="tripinfo_6.8" vType="paperVehicle" speedFactor="1.12" vaporized=""/>
    <tripinfo id="6.9" depart="62.00" departLane="N1A1_0" departPos="5.10" departSpeed="0.00" departDelay="0.00" arrival="352.00" arrivalLane="B3E2_0" arrivalPos="496.00" arrivalSpeed="9.14" duration="290.00" routeLength="2495.93" waitingTime="13.00" waitingCount="1" stopTime="0.00" timeLoss="39.90" rerouteNo="0" devices="tripinfo_6.9" vType="paperVehicle" speedFactor="0.93" vaporized=""/>
    <tripinfo id="6.10" depart="67.00" departLane="N1A1_0" departPos="5.10" departSpeed="0.00" departDelay="0.00" arrival="355.00" arrivalLane="B3E2_0" arrivalPos="496.00" arrivalSpeed="9.04" duration="288.00" routeLength="2495.93" waitingTime="11.00" waitingCount="1" stopTime="0.00" timeLoss="37.52" rerouteNo="0" devices="tripinfo_6.10" vType="paperVehicle" speedFactor="0.88" vaporized=""/>
    <tripinfo id="6.11" depart="73.00" departLane="N1A1_0" departPos="5.10" departSpeed="0.00" departDelay="2.00" arrival="361.00" arrivalLane="B3E2_0" arrivalPos="496.00" arrivalSpeed="9.75" duration="288.00" routeLength="2495.93" waitingTime="9.00" waitingCount="1" stopTime="0.00" timeLoss="37.70" rerouteNo="0" devices="tripinfo_6.11" vType="paperVehicle" speedFactor="0.94" vaporized=""/>
    <tripinfo id="2.1" depart="125.00" departLane="N2A2_0" departPos="5.10" departSpeed="0.00" departDelay="0.00" arrival="365.00" arrivalLane="B2S2_0" arrivalPos="492.80" arrivalSpeed="9.92" duration="240.00" routeLength="1494.90" waitingTime="69.00" waitingCount="2" stopTime="0.00" timeLoss="90.22" rerouteNo="0" devices="tripinfo_2.1" vType="paperVehicle" speedFactor="1.18" vaporized=""/>
    <tripinfo id="6.12" depart="81.00" departLane="N1A1_0" departPos="5.10" departSpeed="0.00" departDelay="2.00" arrival="381.00" arrivalLane="B3E2_0" arrivalPos="496.00" arrivalSpeed="9.39" duration="300.00" routeLength="2495.93" waitingTime="25.00" waitingCount="1" stopTime="0.00" timeLoss="49.68" rerouteNo="0" devices="tripinfo_6.12" vType="paperVehicle" speedFactor="1.01" vaporized=""/>
    <tripinfo id="6.13" depart="84.00" departLane="N1A1_0" departPos="5.10" departSpeed="0.00" departDelay="3.00" arrival="384.00" arrivalLane="B3E2_0" arrivalPos="496.00" arrivalSpeed="9.49" duration="300.00" routeLength="2495.93" waitingTime="22.00" waitingCount="1" stopTime="0.00" timeLoss="48.99" rerouteNo="0" devices="tripinfo_6.13" vType="paperVehicle" speedFactor="0.98" vaporized=""/>
    <tripinfo id="6.14" depart="87.00" departLane="N1A1_0" departPos="5.10" departSpeed="0.00" departDelay="2.00" arrival="386.00" arrivalLane="B3E2_0" arrivalPos="496.00" arrivalSpeed="8.78" duration="299.00" routeLength="2495.93" waitingTime="20.00" waitingCount="1" stopTime="0.00" timeLoss="48.91" rerouteNo="0" devices="tripinfo_6.14" vType="paperVehicle" speedFactor="0.89" vaporized=""/>
    <tripinfo id="6.15" depart="94.00" departLane="N1A1_0" departPos="5.10" departSpeed="0.00" departDelay="1.00" arrival="392.00" arrivalLane="B3E2_0" arrivalPos="496.00" arrivalSpeed="9.49" duration="298.00" routeLength="2495.93" waitingTime="19.00" waitingCount="1" stopTime="0.00" timeLoss="47.01" rerouteNo="0" devices="tripinfo_6.15" vType="paperVehicle" speedFactor="0.87" vaporized=""/>
    <tripinfo id="6.16" depart="100.00" departLane="N1A1_0" departPos="5.10" departSpeed="0.00" departDelay="3.00" arrival="396.00" arrivalLane="B3E2_0" arrivalPos="496.00" arrivalSpeed="8.72" duration="296.00" routeLength="2495.93" waitingTime="15.00" waitingCount="1" stopTime="0.00" timeLoss="45.49" rerouteNo="0" devices="tripinfo_6.16" vType="paperVehicle" speedFactor="1.13" vaporized=""/>
    <tripinfo id="6.17" depart="103.00" departLane="N1A1_0" departPos="5.10" departSpeed="0.00" departDelay="3.00" arrival="399.00" arrivalLane="B3E2_0" arrivalPos="496.00" arrivalSpeed="8.95" duration="296.00" routeLength="2495.93" waitingTime="14.00" waitingCount="1" stopTime="0.00" timeLoss="44.81" rerouteNo="0" devices="tripinfo_6.17" vType="paperVehicle" speedFactor="0.93" vaporized=""/>
    <tripinfo id="6.18" depart="126.00" departLane="N1A1_0" departPos="5.10" departSpeed="0.00" departDelay="0.00" arrival="400.00" arrivalLane="B3E2_0" arrivalPos="496.00" arrivalSpeed="9.88" duration="274.00" routeLength="2495.93" waitingTime="0.00" waitingCount="0" stopTime="0.00" timeLoss="24.21" rerouteNo="0" devices="tripinfo_6.18" vType="paperVehicle" speedFactor="1.15" vaporized=""/>
    <tripinfo id="6.19" depart="129.00" departLane="N1A1_0" departPos="5.10" departSpeed="0.00" departDelay="1.00" arrival="404.00" arrivalLane="B3E2_0" arrivalPos="496.00" arrivalSpeed="9.76" duration="275.00" routeLength="2495.93" waitingTime="0.00" waitingCount="0" stopTime="0.00" timeLoss="24.72" rerouteNo="0" devices="tripinfo_6.19" vType="paperVehicle" speedFactor="1.01" vaporized=""/>
    <tripinfo id="6.20" depart="132.00" departLane="N1A1_0" departPos="5.10" departSpeed="0.00" departDelay="3.00" arrival="407.00" arrivalLane="B3E2_0" arrivalPos="496.00" arrivalSpeed="8.76" duration="275.00" routeLength="2495.93" waitingTime="0.00" waitingCount="0" stopTime="0.00" timeLoss="24.48" rerouteNo="0" devices="tripinfo_6.20" vType="paperVehicle" speedFactor="1.17" vaporized=""/>
    <tripinfo id="6.21" depart="135.00" departLane="N1A1_0" departPos="5.10" departSpeed="0.00" departDelay="4.00" arrival="410.00" arrivalLane="B3E2_0" arrivalPos="496.00" arrivalSpeed="9.30" duration="275.00" routeLength="2495.93" waitingTime="0.00" waitingCount="0" stopTime="0.00" timeLoss="24.62" rerouteNo="0" devices="tripinfo_6.21" vType="paperVehicle" speedFactor="0.99" vaporized=""/>
    <tripinfo id="6.22" depart="138.00" departLane="N1A1_0" departPos="5.10" departSpeed="0.00" departDelay="4.00" arrival="412.00" arrivalLane="B3E2_0" arrivalPos="496.00" arrivalSpeed="9.71" duration="274.00" routeLength="2495.93" waitingTime="0.00" waitingCount="0" stopTime="0.00" timeLoss="23.47" rerouteNo="0" devices="tripinfo_6.22" vType="paperVehicle" speedFactor="1.02" vaporized=""/>
    <tripinfo id="6.23" depart="146.00" departLane="N1A1_0" departPos="5.10" departSpeed="0.00" departDelay="0.00" arrival="445.00" arrivalLane="B3E2_0" arrivalPos="496.00" arrivalSpeed="9.10" duration="299.00" routeLength="2495.93" waitingTime="24.00" waitingCount="1" stopTime="0.00" timeLoss="48.34" rerouteNo="0" devices="tripinfo_6.23" vType="paperVehicle" speedFactor="0.97" vaporized=""/>
    <tripinfo id="6.24" depart="149.00" departLane="N1A1_0" departPos="5.10" departSpeed="0.00" departDelay="0.00" arrival="447.00" arrivalLane="B3E2_0" arrivalPos="496.00" arrivalSpeed="9.53" duration="298.00" routeLength="2495.93" waitingTime="22.00" waitingCount="1" stopTime="0.00" timeLoss="47.99" rerouteNo="0" devices="tripinfo_6.24" vType="paperVehicle" speedFactor="1.18" vaporized=""/>
    <tripinfo id="6.25" depart="152.00" departLane="N1A1_0" departPos="5.10" departSpeed="0.00" departDelay="0.00" arrival="450.00" arrivalLane="B3E2_0" arrivalPos="496.00" arrivalSpeed="9.14" duration="298.00" routeLength="2495.93" waitingTime="22.00" waitingCount="1" stopTime="0.00" timeLoss="47.14" rerouteNo="0" devices="tripinfo_6.25" vType="paperVehicle" speedFactor="1.10" vaporized=""/>
    <tripinfo id="6.26" depart="175.00" departLane="N1A1_0" departPos="5.10" departSpeed="0.00" departDelay="0.00" arrival="452.00" arrivalLane="B3E2_0" arrivalPos="496.00" arrivalSpeed="9.74" duration="277.00" routeLength="2495.93" waitingTime="0.00" waitingCount="0" stopTime="0.00" timeLoss="26.22" rerouteNo="0" devices="tripinfo_6.26" vType="paperVehicle" speedFactor="0.90" vaporized=""/>
    <tripinfo id="6.27" depart="178.00" departLane="N1A1_0" departPos="5.10" departSpeed="0.00" departDelay="1.00" arrival="454.00" arrivalLane="B3E2_0" arrivalPos="496.00" arrivalSpeed="9.55" duration="276.00" routeLength="2495.93" waitingTime="0.00" waitingCount="0" stopTime="0.00" timeLoss="26.11" rerouteNo="0" devices="tripinfo_6.27" vType="paperVehicle" speedFactor="1.03" vaporized=""/>
    <tripinfo id="3.0" depart="270.00" departLane="N3A3_0" departPos="5.10" departSpeed="0.00" departDelay="0.00" arrival="464.00" arrivalLane="B3S3_0" arrivalPos="492.80" arrivalSpeed="9.05" duration="194.00" routeLength="1494.90" waitingTime="29.00" waitingCount="1" stopTime="0.00" timeLoss="44.45" rerouteNo="0" devices="tripinfo_3.0" vType="paperVehicle" speedFactor="1.02" vaporized=""/>
    <tripinfo id="3.1" depart="304.00" departLane="N3A3_0" departPos="5.10" departSpeed="0.00" departDelay="0.00" arrival="466.00" arrivalLane="B3S3_0" arrivalPos="492.80" arrivalSpeed="9.86" duration="162.00" routeLength="1494.90" waitingTime="0.00" waitingCount="0" stopTime="0.00" timeLoss="12.40" rerouteNo="0" devices="tripinfo_3.1" vType="paperVehicle" speedFactor="0.91" vaporized=""/>
    <tripinfo id="4.2" depart="227.00" departLane="W1A1_0" departPos="5.10" departSpeed="0.00" departDelay="0.00" arrival="472.00" arrivalLane="A3E1_0" arrivalPos="496.00" arrivalSpeed="9.42" duration="245.00" routeLength="1994.90" waitingTime="25.00" waitingCount="1" stopTime="0.00" timeLoss="44.62" rerouteNo="0" devices="tripinfo_4.2" vType="paperVehicle" speedFactor="0.85" vaporized=""/>
    <tripinfo id="4.3" depart="273.00" departLane="W1A1_0" departPos="5.10" departSpeed="0.00" departDelay="0.00" arrival="489.00" arrivalLane="A3E1_0" arrivalPos="496.00" arrivalSpeed="8.72" duration="216.00" routeLength="1994.90" waitingTime="0.00" waitingCount="0" stopTime="0.00" timeLoss="15.81" rerouteNo="0" devices="tripinfo_4.3" vType="paperVehicle" speedFactor="0.97" vaporized=""/>
    <tripinfo id="5.2" depart="222.00" departLane="W2B1_0" departPos="5.10" departSpeed="0.00" departDelay="0.00" arrival="490.00" arrivalLane="B3E2_0" arrivalPos="496.00" arrivalSpeed="9.95" duration="268.00" routeLength="1994.90" waitingTime="42.00" waitingCount="2" stopTime="0.00" timeLoss="67.68" rerouteNo="0" devices="tripinfo_5.2" vType="paperVehicle" speedFactor="0.90" vaporized=""/>
    <tripinfo id="5.3" depart="250.00" departLane="W2B1_0" departPos="5.10" departSpeed="0.00" departDelay="0.00" arrival="492.00" arrivalLane="B3E2_0" arrivalPos="496.00" arrivalSpeed="9.56" duration="242.00" routeLength="1994.90" waitingTime="22.00" waitingCount="1" stopTime="0.00" timeLoss="41.85" rerouteNo="0" devices="tripinfo_5.3" vType="paperVehicle" speedFactor="1.00" vaporized=""/>
    <tripinfo id="6.28" depart="189.00" departLane="N1A1_0" departPos="5.10" departSpeed="0.00" departDelay="0.00" arrival="494.00" arrivalLane="B3E2_0" arrivalPos="496.00" arrivalSpeed="9.31" duration="305.00" routeLength="2495.93" waitingTime="25.00" waitingCount="2" stopTime="0.00" timeLoss="54.88" rerouteNo="0" devices="tripinfo_6.28" vType="paperVehicle" speedFactor="1.09" vaporized=""/>
    <tripinfo id="6.29" depart="199.00" departLane="N1A1_0" departPos="5.10" departSpeed="0.00" departDelay="0.00" arrival="496.00" arrivalLane="B3E2_0" arrivalPos="496.00" arrivalSpeed="9.62" duration="297.00" routeLength="2495.93" waitingTime="18.00" waitingCount="2" stopTime="0.00" timeLoss="46.56" rerouteNo="0" devices="tripinfo_6.29" vType="paperVehicle" speedFactor="1.04" vaporized=""/>
    <tripinfo id="6.30" depart="202.00" departLane="N1A1_0" departPos="5.10" departSpeed="0.00" departDelay="0.00" arrival="498.00" arrivalLane="B3E2_0" arrivalPos="496.00" arrivalSpeed="9.79" duration="296.00" routeLength="2495.93" waitingTime="15.00" waitingCount="2" stopTime="0.00" timeLoss="45.56" rerouteNo="0" devices="tripinfo_6.30" vType="paperVehicle" speedFactor="1.04" vaporized=""/>
    <tripinfo id="4.4" depart="281.00" departLane="W1A1_0" departPos="5.10" departSpeed="0.00" departDelay="0.00" arrival="498.00" arrivalLane="A3E1_0" arrivalPos="496.00" arrivalSpeed="9.05" duration="217.00" routeLength="1994.90" waitingTime="0.00" waitingCount="0" stopTime="0.00" timeLoss="16.78" rerouteNo="0" devices="tripinfo_4.4" vType="paperVehicle" speedFactor="1.02" vaporized=""/>
    <tripinfo id="6.31" depart="205.00" departLane="N1A1_0" departPos="5.10" departSpeed="0.00" departDelay="1.00" arrival="500.00" arrivalLane="B3E2_0" arrivalPos="496.00" arrivalSpeed="9.98" duration="295.00" routeLength="2495.93" waitingTime="14.00" waitingCount="2" stopTime="0.00" timeLoss="44.66" rerouteNo="0" devices="tripinfo_6.31" vType="paperVehicle" speedFactor="1.09" vaporized=""/>
    <tripinfo id="6.32" depart="214.00" departLane="N1A1_0" departPos="5.10" departSpeed="0.00" departDelay="0.00" arrival="503.00" arrivalLane="B3E2_0" arrivalPos="496.00" arrivalSpeed="10.00" duration="289.00" routeLength="2495.93" waitingTime="4.00" waitingCount="2" stopTime="0.00" timeLoss="37.84" rerouteNo="0" devices="tripinfo_6.32" vType="paperVehicle" speedFactor="1.00" vaporized=""/>
    <tripinfo id="6.33" depart="223.00" departLane="N1A1_0" departPos="5.10" departSpeed="0.00" departDelay="0.00" arrival="505.00" arrivalLane="B3E2_0" arrivalPos="496.00" arrivalSpeed="8.76" duration="282.00" routeLength="2495.93" waitingTime="0.00" waitingCount="0" stopTime="0.00" timeLoss="31.18" rerouteNo="0" devices="tripinfo_6.33" vType="paperVehicle" speedFactor="0.88" vaporized=""/>
    <tripinfo id="6.34" depart="231.00" departLane="N1A1_0" departPos="5.10" departSpeed="0.00" departDelay="0.00" arrival="507.00" arrivalLane="B3E2_0" arrivalPos="496.00" arrivalSpeed="9.17" duration="276.00" routeLength="2495.93" waitingTime="0.00" waitingCount="0" stopTime="0.00" timeLoss="25.37" rerouteNo="0" devices="tripinfo_6.34" vType="paperVehicle" speedFactor="0.85" vaporized=""/>
    <tripinfo id="6.35" depart="234.00" departLane="N1A1_0" departPos="5.10" departSpeed="0.00" departDelay="0.00" arrival="509.00" arrivalLane="B3E2_0" arrivalPos="496.00" arrivalSpeed="9.51" duration="275.00" routeLength="2495.93" waitingTime="0.00" waitingCount="0" stopTime="0.00" timeLoss="24.51" rerouteNo="0" devices="tripinfo_6.35" vType="paperVehicle" speedFactor="1.17" vaporized=""/>
    <tripinfo id="6.36" depart="237.00" departLane="N1A1_0" departPos="5.10" departSpeed="0.00" departDelay="1.00" arrival="511.00" arrivalLane="B3E2_0" arrivalPos="496.00" arrivalSpeed="8.78" duration="274.00" routeLength="2495.93" waitingTime="0.00" waitingCount="0" stopTime="0.00" timeLoss="23.36" rerouteNo="0" devices="tripinfo_6.36" vType="paperVehicle" speedFactor="1.02" vaporized=""/>
    <tripinfo id="6.37" depart="240.00" departLane="N1A1_0" departPos="5.10" departSpeed="0.00" departDelay="3.00" arrival="513.00" arrivalLane="B3E2_0" arrivalPos="496.00" arrivalSpeed="9.91" duration="273.00" routeLength="2495.93" waitingTime="0.00" waitingCount="0" stopTime="0.00" timeLoss="22.62" rerouteNo="0" devices="tripinfo_6.37" vType="paperVehicle" speedFactor="1.10" vaporized=""/>
    <tripinfo id="6.38" depart="242.00" departLane="N1A1_0" departPos="5.10" departSpeed="0.00" departDelay="0.00" arrival="515.00" arrivalLane="B3E2_0" arrivalPos="496.00" arrivalSpeed="8.72" duration="273.00" routeLength="2495.93" waitingTime="0.00" waitingCount="0" stopTime="0.00" timeLoss="22.94" rerouteNo="0" devices="tripinfo_6.38" vType="paperVehicle" speedFactor="1.00" vaporized=""/>
    <tripinfo id="2.2" depart="317.00" departLane="N2A2_0" departPos="5.10" departSpeed="0.00" departDelay="0.00" arrival="522.00" arrivalLane="B2S2_0" arrivalPos="492.80" arrivalSpeed="8.80" duration="205.00" routeLength="1494.90" waitingTime="35.00" waitingCount="2" stopTime="0.00" timeLoss="55.36" rerouteNo="0" devices="tripinfo_2.2" vType="paperVehicle" speedFactor="1.02" vaporized=""/>
    <tripinfo id="2.3" depart="326.00" departLane="N2A2_0" departPos="5.10" departSpeed="0.00" departDelay="0.00" arrival="525.00" arrivalLane="B2S2_0" arrivalPos="492.80" arrivalSpeed="9.72" duration="199.00" routeLength="1494.90" waitingTime="26.00" waitingCount="2" stopTime="0.00" timeLoss="48.88" rerouteNo="0" devices="tripinfo_2.3" vType="paperVehicle" speedFactor="0.94" vaporized=""/>
    <tripinfo id="1.8" depart="368.00" departLane="N1A1_0" departPos="5.10" departSpeed="0.00" departDelay="2.00" arrival="555.00" arrivalLane="B1S1_0" arrivalPos="492.80" arrivalSpeed="9.44" duration="187.00" routeLength="1494.90" waitingTime="18.00" waitingCount="1" stopTime="0.00" timeLoss="36.74" rerouteNo="0" devices="tripinfo_1.8" vType="paperVehicle" speedFactor="0.97" vaporized=""/>
    <tripinfo id="6.39" depart="259.00" departLane="N1A1_0" departPos="5.10" departSpeed="0.00" departDelay="0.00" arrival="560.00" arrivalLane="B3E2_0" arrivalPos="496.00" arrivalSpeed="9.95" duration="301.00" routeLength="2495.93" waitingTime="25.00" waitingCount="1" stopTime="0.00" timeLoss="49.77" rerouteNo="0" devices="tripinfo_6.39" vType="paperVehicle" speedFactor="0.90" vaporized=""/>
    <tripinfo id="6.40" depart="265.00" departLane="N1A1_0" departPos="5.10" departSpeed="0.00" departDelay="0.00" arrival="563.00" arrivalLane="B3E2_0" arrivalPos="496.00" arrivalSpeed="8.74" duration="298.00" routeLength="2495.93" waitingTime="23.00" waitingCount="1" stopTime="0.00" timeLoss="47.49" rerouteNo="0" devices="tripinfo_6.40" vType="paperVehicle" speedFactor="1.14" vaporized=""/>
    <tripinfo id="6.41" depart="274.00" departLane="N1A1_0" departPos="5.10" departSpeed="0.00" departDelay="0.00" arrival="565.00" arrivalLane="B3E2_0" arrivalPos="496.00" arrivalSpeed="9.95" duration="291.00" routeLength="2495.93" waitingTime="13.00" waitingCount="1" stopTime="0.00" timeLoss="40.57" rerouteNo="0" devices="tripinfo_6.41" vType="paperVehicle" speedFactor="1.08" vaporized=""/>
    <tripinfo id="6.42" depart="279.00" departLane="N1A1_0" departPos="5.10" departSpeed="0.00" departDelay="0.00" arrival="568.00" arrivalLane="B3E2_0" arrivalPos="496.00" arrivalSpeed="9.40" duration="289.00" routeLength="2495.93" waitingTime="9.00" waitingCount="1" stopTime="0.00" timeLoss="39.11" rerouteNo="0" devices="tripinfo_6.42" vType="paperVehicle" speedFactor="1.12" vaporized=""/>
    <tripinfo id="1.9" depart="422.00" departLane="N1A1_0" departPos="5.10" departSpeed="0.00" departDelay="0.00" arrival="585.00" arrivalLane="B1S1_0" arrivalPos="492.80" arrivalSpeed="9.21" duration="163.00" routeLength="1494.90" waitingTime="0.00" waitingCount="0" stopTime="0.00" timeLoss="13.00" rerouteNo="0" devices="tripinfo_1.9" vType="paperVehicle" speedFactor="0.89" vaporized=""/>
    <tripinfo id="4.5" depart="309.00" departLane="W1A1_0" departPos="5.10" departSpeed="0.00" departDelay="0.00" arrival="591.00" arrivalLane="A3E1_0" arrivalPos="496.00" arrivalSpeed="9.29" duration="282.00" routeLength="1994.90" waitingTime="58.00" waitingCount="2" stopTime="0.00" timeLoss="81.95" rerouteNo="0" devices="tripinfo_4.5" vType="paperVehicle" speedFactor="1.02" vaporized=""/>
    <tripinfo id="4.6" depart="356.00" departLane="W1A1_0" departPos="5.10" departSpeed="0.00" departDelay="0.00" arrival="594.00" arrivalLane="A3E1_0" arrivalPos="496.00" arrivalSpeed="9.96" duration="238.00" routeLength="1994.90" waitingTime="12.00" waitingCount="1" stopTime="0.00" timeLoss="37.57" rerouteNo="0" devices="tripinfo_4.6" vType="paperVehicle" speedFactor="1.09" vaporized=""/>
    <tripinfo id="1.10" depart="437.00" departLane="N1A1_0" departPos="5.10" departSpeed="0.00" departDelay="2.00" arrival="600.00" arrivalLane="B1S1_0" arrivalPos="492.80" arrivalSpeed="9.53" duration="163.00" routeLength="1494.90" waitingTime="0.00" waitingCount="0" stopTime="0.00" timeLoss="13.37" rerouteNo="0" devices="tripinfo_1.10" vType="paperVehicle" speedFactor="1.09" vaporized=""/>
    <tripinfo id="6.43" depart="282.00" departLane="N1A1_0" departPos="5.10" departSpeed="0.00" departDelay="1.00" arrival="601.00" arrivalLane="B3E2_0" arrivalPos="496.00" arrivalSpeed="9.52" duration="319.00" routeLength="2495.93" waitingTime="35.00" waitingCount="2" stopTime="0.00" timeLoss="68.30" rerouteNo="0" devices="tripinfo_6.43" vType="paperVehicle" speedFactor="0.99" vaporized=""/>
    <tripinfo id="6.44" depart="285.00" departLane="N1A1_0" departPos="5.10" departSpeed="0.00" departDelay="3.00" arrival="603.00" arrivalLane="B3E2_0" arrivalPos="496.00" arrivalSpeed="8.78" duration="318.00" routeLength="2495.93" waitingTime="34.00" waitingCount="2" stopTime="0.00" timeLoss="67.91" rerouteNo="0" devices="tripinfo_6.44" vType="paperVehicle" speedFactor="0.94" vaporized=""/>