<?xml version="1.0" encoding="UTF-8"?>

<!-- generated on 2022-01-25 11:25:13 by Eclipse SUMO sumo Version 1.10.0
<configuration xmlns:xsi="http://www.w3.org/2001/XMLSchema-instance" xsi:noNamespaceSchemaLocation="http://sumo.dlr.de/xsd/sumoConfiguration.xsd">

    <input>
        <net-file value="C:\Users\Marcus\Desktop\Hauptordner\Studium\Masterstudium\3.%20Semester\Projekt_Sim-Opt\Traffic_Simulation\GridNetwork\2x3net.net.xml"/>
        <route-files value="C:\Users\Marcus\Desktop\Hauptordner\Studium\Masterstudium\3.%20Semester\Projekt_Sim-Opt\Traffic_Simulation\GridNetwork\2x3Routes.xml"/>
        <additional-files value="C:\Users\Marcus\Desktop\Hauptordner\Studium\Masterstudium\3.%20Semester\Projekt_Sim-Opt\Traffic_Simulation\GridNetwork\additionals.xml"/>
    </input>

    <output>
        <tripinfo-output value="../tripinfo.xml"/>
        <statistic-output value="../statistics.xml"/>
    </output>

    <report>
        <no-step-log value="true"/>
    </report>

    <traci_server>
        <remote-port value="62895"/>
    </traci_server>

</configuration>
-->

<tripinfos xmlns:xsi="http://www.w3.org/2001/XMLSchema-instance" xsi:noNamespaceSchemaLocation="http://sumo.dlr.de/xsd/tripinfo_file.xsd">
    <tripinfo id="1.0" depart="9.00" departLane="N1A1_0" departPos="5.10" departSpeed="0.00" departDelay="1.00" arrival="171.00" arrivalLane="B1S1_0" arrivalPos="492.80" arrivalSpeed="9.65" duration="162.00" routeLength="1494.90" waitingTime="0.00" waitingCount="0" stopTime="0.00" timeLoss="12.49" rerouteNo="0" devices="tripinfo_1.0" vType="paperVehicle" speedFactor="1.08" vaporized=""/>
    <tripinfo id="1.1" depart="26.00" departLane="N1A1_0" departPos="5.10" departSpeed="0.00" departDelay="0.00" arrival="214.00" arrivalLane="B1S1_0" arrivalPos="492.80" arrivalSpeed="9.97" duration="188.00" routeLength="1494.90" waitingTime="22.00" waitingCount="1" stopTime="0.00" timeLoss="37.79" rerouteNo="0" devices="tripinfo_1.1" vType="paperVehicle" speedFactor="1.05" vaporized=""/>
    <tripinfo id="5.0" depart="0.00" departLane="W2B1_0" departPos="5.10" departSpeed="0.00" departDelay="0.00" arrival="216.00" arrivalLane="B3E2_0" arrivalPos="496.00" arrivalSpeed="9.31" duration="216.00" routeLength="1994.90" waitingTime="0.00" waitingCount="0" stopTime="0.00" timeLoss="16.40" rerouteNo="0" devices="tripinfo_5.0" vType="paperVehicle" speedFactor="1.06" vaporized=""/>
    <tripinfo id="2.0" depart="51.00" departLane="N2A2_0" departPos="5.10" departSpeed="0.00" departDelay="0.00" arrival="255.00" arrivalLane="B2S2_0" arrivalPos="492.80" arrivalSpeed="9.04" duration="204.00" routeLength="1494.90" waitingTime="38.00" waitingCount="1" stopTime="0.00" timeLoss="54.31" rerouteNo="0" devices="tripinfo_2.0" vType="paperVehicle" speedFactor="1.03" vaporized=""/>
    <tripinfo id="2.1" depart="57.00" departLane="N2A2_0" departPos="5.10" departSpeed="0.00" departDelay="0.00" arrival="258.00" arrivalLane="B2S2_0" arrivalPos="492.80" arrivalSpeed="9.92" duration="201.00" routeLength="1494.90" waitingTime="34.00" waitingCount="1" stopTime="0.00" timeLoss="50.53" rerouteNo="0" devices="tripinfo_2.1" vType="paperVehicle" speedFactor="1.05" vaporized=""/>
    <tripinfo id="6.0" depart="2.00" departLane="N1A1_0" departPos="5.10" departSpeed="0.00" departDelay="0.00" arrival="273.00" arrivalLane="B3E2_0" arrivalPos="496.00" arrivalSpeed="8.71" duration="271.00" routeLength="2495.93" waitingTime="0.00" waitingCount="0" stopTime="0.00" timeLoss="20.99" rerouteNo="0" devices="tripinfo_6.0" vType="paperVehicle" speedFactor="0.94" vaporized=""/>
    <tripinfo id="6.1" depart="6.00" departLane="N1A1_0" departPos="5.10" departSpeed="0.00" departDelay="0.00" arrival="275.00" arrivalLane="B3E2_0" arrivalPos="496.00" arrivalSpeed="9.74" duration="269.00" routeLength="2495.93" waitingTime="0.00" waitingCount="0" stopTime="0.00" timeLoss="19.11" rerouteNo="0" devices="tripinfo_6.1" vType="paperVehicle" speedFactor="1.01" vaporized=""/>
    <tripinfo id="6.2" depart="16.00" departLane="N1A1_0" departPos="5.10" departSpeed="0.00" departDelay="0.00" arrival="287.00" arrivalLane="B3E2_0" arrivalPos="496.00" arrivalSpeed="9.07" duration="271.00" routeLength="2495.93" waitingTime="0.00" waitingCount="0" stopTime="0.00" timeLoss="21.07" rerouteNo="0" devices="tripinfo_6.2" vType="paperVehicle" speedFactor="1.03" vaporized=""/>
    <tripinfo id="5.1" depart="34.00" departLane="W2B1_0" departPos="5.10" departSpeed="0.00" departDelay="0.00" arrival="294.00" arrivalLane="B3E2_0" arrivalPos="496.00" arrivalSpeed="9.13" duration="260.00" routeLength="1994.90" waitingTime="39.00" waitingCount="1" stopTime="0.00" timeLoss="59.94" rerouteNo="0" devices="tripinfo_5.1" vType="paperVehicle" speedFactor="0.94" vaporized=""/>
    <tripinfo id="1.2" depart="121.00" departLane="N1A1_0" departPos="5.10" departSpeed="0.00" departDelay="0.00" arrival="296.00" arrivalLane="B1S1_0" arrivalPos="492.80" arrivalSpeed="9.92" duration="175.00" routeLength="1494.90" waitingTime="7.00" waitingCount="1" stopTime="0.00" timeLoss="24.84" rerouteNo="0" devices="tripinfo_1.2" vType="paperVehicle" speedFactor="0.89" vaporized=""/>
    <tripinfo id="5.2" depart="85.00" departLane="W2B1_0" departPos="5.10" departSpeed="0.00" departDelay="0.00" arrival="301.00" arrivalLane="B3E2_0" arrivalPos="496.00" arrivalSpeed="9.83" duration="216.00" routeLength="1994.90" waitingTime="0.00" waitingCount="0" stopTime="0.00" timeLoss="16.50" rerouteNo="0" devices="tripinfo_5.2" vType="paperVehicle" speedFactor="0.94" vaporized=""/>
    <tripinfo id="3.0" depart="93.00" departLane="N3A3_0" departPos="5.10" departSpeed="0.00" departDelay="0.00" arrival="309.00" arrivalLane="B3S3_0" arrivalPos="492.80" arrivalSpeed="9.09" duration="216.00" routeLength="1494.90" waitingTime="50.00" waitingCount="1" stopTime="0.00" timeLoss="65.97" rerouteNo="0" devices="tripinfo_3.0" vType="paperVehicle" speedFactor="0.94" vaporized=""/>
    <tripinfo id="1.3" depart="150.00" departLane="N1A1_0" departPos="5.10" departSpeed="0.00" departDelay="0.00" arrival="312.00" arrivalLane="B1S1_0" arrivalPos="492.80" arrivalSpeed="9.86" duration="162.00" routeLength="1494.90" waitingTime="0.00" waitingCount="0" stopTime="0.00" timeLoss="12.39" rerouteNo="0" devices="tripinfo_1.3" vType="paperVehicle" speedFactor="1.18" vaporized=""/>
    <tripinfo id="3.1" depart="157.00" departLane="N3A3_0" departPos="5.10" departSpeed="0.00" departDelay="0.00" arrival="319.00" arrivalLane="B3S3_0" arrivalPos="492.80" arrivalSpeed="8.73" duration="162.00" routeLength="1494.90" waitingTime="0.00" waitingCount="0" stopTime="0.00" timeLoss="12.20" rerouteNo="0" devices="tripinfo_3.1" vType="paperVehicle" speedFactor="1.01" vaporized=""/>
    <tripinfo id="4.0" depart="79.00" departLane="W1A1_0" departPos="5.10" departSpeed="0.00" departDelay="0.00" arrival="331.00" arrivalLane="A3E1_0" arrivalPos="496.00" arrivalSpeed="8.76" duration="252.00" routeLength="1994.90" waitingTime="31.00" waitingCount="2" stopTime="0.00" timeLoss="51.81" rerouteNo="0" devices="tripinfo_4.0" vType="paperVehicle" speedFactor="0.88" vaporized=""/>
    <tripinfo id="3.2" depart="176.00" departLane="N3A3_0" departPos="5.10" departSpeed="0.00" departDelay="0.00" arrival="338.00" arrivalLane="B3S3_0" arrivalPos="492.80" arrivalSpeed="9.98" duration="162.00" routeLength="1494.90" waitingTime="0.00" waitingCount="0" stopTime="0.00" timeLoss="11.99" rerouteNo="0" devices="tripinfo_3.2" vType="paperVehicle" speedFactor="1.02" vaporized=""/>
    <tripinfo id="6.3" depart="20.00" departLane="N1A1_0" departPos="5.10" departSpeed="0.00" departDelay="0.00" arrival="346.00" arrivalLane="B3E2_0" arrivalPos="496.00" arrivalSpeed="9.45" duration="326.00" routeLength="2495.93" waitingTime="43.00" waitingCount="3" stopTime="0.00" timeLoss="75.36" rerouteNo="0" devices="tripinfo_6.3" vType="paperVehicle" speedFactor="0.83" vaporized=""/>
    <tripinfo id="2.2" depart="160.00" departLane="N2A2_0" departPos="5.10" departSpeed="0.00" departDelay="0.00" arrival="346.00" arrivalLane="B2S2_0" arrivalPos="492.80" arrivalSpeed="9.63" duration="186.00" routeLength="1494.90" waitingTime="20.00" waitingCount="1" stopTime="0.00" timeLoss="35.79" rerouteNo="0" devices="tripinfo_2.2" vType="paperVehicle" speedFactor="1.17" vaporized=""/>
    <tripinfo id="6.4" depart="29.00" departLane="N1A1_0" departPos="5.10" departSpeed="0.00" departDelay="1.00" arrival="348.00" arrivalLane="B3E2_0" arrivalPos="496.00" arrivalSpeed="9.19" duration="319.00" routeLength="2495.93" waitingTime="32.00" waitingCount="3" stopTime="0.00" timeLoss="68.91" rerouteNo="0" devices="tripinfo_6.4" vType="paperVehicle" speedFactor="0.89" vaporized=""/>
    <tripinfo id="6.5" depart="35.00" departLane="N1A1_0" departPos="5.10" departSpeed="0.00" departDelay="0.00" arrival="350.00" arrivalLane="B3E2_0" arrivalPos="496.00" arrivalSpeed="9.16" duration="315.00" routeLength="2495.93" waitingTime="28.00" waitingCount="3" stopTime="0.00" timeLoss="64.85" rerouteNo="0" devices="tripinfo_6.5" vType="paperVehicle" speedFactor="0.86" vaporized=""/>
    <tripinfo id="6.6" depart="41.00" departLane="N1A1_0" departPos="5.10" departSpeed="0.00" departDelay="0.00" arrival="353.00" arrivalLane="B3E2_0" arrivalPos="496.00" arrivalSpeed="9.46" duration="312.00" routeLength="2495.93" waitingTime="22.00" waitingCount="3" stopTime="0.00" timeLoss="61.21" rerouteNo="0" devices="tripinfo_6.6" vType="paperVehicle" speedFactor="1.09" vaporized=""/>
    <tripinfo id="6.7" depart="69.00" departLane="N1A1_0" departPos="5.10" departSpeed="0.00" departDelay="0.00" arrival="355.00" arrivalLane="B3E2_0" arrivalPos="496.00" arrivalSpeed="8.80" duration="286.00" routeLength="2495.93" waitingTime="3.00" waitingCount="1" stopTime="0.00" timeLoss="35.51" rerouteNo="0" devices="tripinfo_6.7" vType="paperVehicle" speedFactor="1.12" vaporized=""/>
    <tripinfo id="6.8" depart="72.00" departLane="N1A1_0" departPos="5.10" departSpeed="0.00" departDelay="0.00" arrival="358.00" arrivalLane="B3E2_0" arrivalPos="496.00" arrivalSpeed="8.78" duration="286.00" routeLength="2495.93" waitingTime="3.00" waitingCount="1" stopTime="0.00" timeLoss="35.32" rerouteNo="0" devices="tripinfo_6.8" vType="paperVehicle" speedFactor="0.99" vaporized=""/>
    <tripinfo id="6.9" depart="77.00" departLane="N1A1_0" departPos="5.10" departSpeed="0.00" departDelay="0.00" arrival="360.00" arrivalLane="B3E2_0" arrivalPos="496.00" arrivalSpeed="9.23" duration="283.00" routeLength="2495.93" waitingTime="3.00" waitingCount="1" stopTime="0.00" timeLoss="32.04" rerouteNo="0" devices="tripinfo_6.9" vType="paperVehicle" speedFactor="0.93" vaporized=""/>
    <tripinfo id="5.3" depart="122.00" departLane="W2B1_0" departPos="5.10" departSpeed="0.00" departDelay="0.00" arrival="362.00" arrivalLane="B3E2_0" arrivalPos="496.00" arrivalSpeed="8.89" duration="240.00" routeLength="1994.90" waitingTime="13.00" waitingCount="1" stopTime="0.00" timeLoss="39.97" rerouteNo="0" devices="tripinfo_5.3" vType="paperVehicle" speedFactor="0.83" vaporized=""/>
    <tripinfo id="2.3" depart="200.00" departLane="N2A2_0" departPos="5.10" departSpeed="0.00" departDelay="0.00" arrival="363.00" arrivalLane="B2S2_0" arrivalPos="492.80" arrivalSpeed="9.72" duration="163.00" routeLength="1494.90" waitingTime="0.00" waitingCount="0" stopTime="0.00" timeLoss="13.15" rerouteNo="0" devices="tripinfo_2.3" vType="paperVehicle" speedFactor="0.96" vaporized=""/>
    <tripinfo id="5.4" depart="154.00" departLane="W2B1_0" departPos="5.10" departSpeed="0.00" departDelay="0.00" arrival="369.00" arrivalLane="B3E2_0" arrivalPos="496.00" arrivalSpeed="9.20" duration="215.00" routeLength="1994.90" waitingTime="0.00" waitingCount="0" stopTime="0.00" timeLoss="15.41" rerouteNo="0" devices="tripinfo_5.4" vType="paperVehicle" speedFactor="1.15" vaporized=""/>
    <tripinfo id="1.4" depart="200.00" departLane="N1A1_0" departPos="5.10" departSpeed="0.00" departDelay="0.00" arrival="369.00" arrivalLane="B1S1_0" arrivalPos="492.80" arrivalSpeed="9.92" duration="169.00" routeLength="1494.90" waitingTime="0.00" waitingCount="0" stopTime="0.00" timeLoss="19.10" rerouteNo="0" devices="tripinfo_1.4" vType="paperVehicle" speedFactor="1.03" vaporized=""/>
    <tripinfo id="6.10" depart="93.00" departLane="N1A1_0" departPos="5.10" departSpeed="0.00" departDelay="0.00" arrival="379.00" arrivalLane="B3E2_0" arrivalPos="496.00" arrivalSpeed="9.38" duration="286.00" routeLength="2495.93" waitingTime="12.00" waitingCount="1" stopTime="0.00" timeLoss="35.40" rerouteNo="0" devices="tripinfo_6.10" vType="paperVehicle" speedFactor="1.16" vaporized=""/>
    <tripinfo id="4.1" depart="135.00" departLane="W1A1_0" departPos="5.10" departSpeed="0.00" departDelay="0.00" arrival="388.00" arrivalLane="A3E1_0" arrivalPos="496.00" arrivalSpeed="9.86" duration="253.00" routeLength="1994.90" waitingTime="32.00" waitingCount="1" stopTime="0.00" timeLoss="52.58" rerouteNo="0" devices="tripinfo_4.1" vType="paperVehicle" speedFactor="0.92" vaporized=""/>
    <tripinfo id="4.2" depart="145.00" departLane="W1A1_0" departPos="5.10" departSpeed="0.00" departDelay="0.00" arrival="390.00" arrivalLane="A3E1_0" arrivalPos="496.00" arrivalSpeed="8.75" duration="245.00" routeLength="1994.90" waitingTime="24.00" waitingCount="1" stopTime="0.00" timeLoss="45.11" rerouteNo="0" devices="tripinfo_4.2" vType="paperVehicle" speedFactor="0.93" vaporized=""/>
    <tripinfo id="6.11" depart="96.00" departLane="N1A1_0" departPos="5.10" departSpeed="0.00" departDelay="2.00" arrival="425.00" arrivalLane="B3E2_0" arrivalPos="496.00" arrivalSpeed="8.72" duration="329.00" routeLength="2495.93" waitingTime="49.00" waitingCount="2" stopTime="0.00" timeLoss="78.47" rerouteNo="0" devices="tripinfo_6.11" vType="paperVehicle" speedFactor="1.02" vaporized=""/>
    <tripinfo id="6.12" depart="99.00" departLane="N1A1_0" departPos="5.10" departSpeed="0.00" departDelay="4.00" arrival="427.00" arrivalLane="B3E2_0" arrivalPos="496.00" arrivalSpeed="8.89" duration="328.00" routeLength="2495.93" waitingTime="46.00" waitingCount="2" stopTime="0.00" timeLoss="77.64" rerouteNo="0" devices="tripinfo_6.12" vType="paperVehicle" speedFactor="1.01" vaporized=""/>
    <tripinfo id="6.13" depart="102.00" departLane="N1A1_0" departPos="5.10" departSpeed="0.00" departDelay="0.00" arrival="430.00" arrivalLane="B3E2_0" arrivalPos="496.00" arrivalSpeed="9.92" duration="328.00" routeLength="2495.93" waitingTime="44.00" waitingCount="2" stopTime="0.00" timeLoss="77.18" rerouteNo="0" devices="tripinfo_6.13" vType="paperVehicle" speedFactor="0.98" vaporized=""/>
    <tripinfo id="6.14" depart="128.00" departLane="N1A1_0" departPos="5.10" departSpeed="0.00" departDelay="0.00" arrival="432.00" arrivalLane="B3E2_0" arrivalPos="496.00" arrivalSpeed="9.76" duration="304.00" routeLength="2495.93" waitingTime="18.00" waitingCount="1" stopTime="0.00" timeLoss="53.11" rerouteNo="0" devices="tripinfo_6.14" vType="paperVehicle" speedFactor="0.87" vaporized=""/>
    <tripinfo id="6.15" depart="138.00" departLane="N1A1_0" departPos="5.10" departSpeed="0.00" departDelay="0.00" arrival="434.00" arrivalLane="B3E2_0" arrivalPos="496.00" arrivalSpeed="9.86" duration="296.00" routeLength="2495.93" waitingTime="17.00" waitingCount="1" stopTime="0.00" timeLoss="45.66" rerouteNo="0" devices="tripinfo_6.15" vType="paperVehicle" speedFactor="0.95" vaporized=""/>
    <tripinfo id="6.16" depart="142.00" departLane="N1A1_0" departPos="5.10" departSpeed="0.00" departDelay="0.00" arrival="436.00" arrivalLane="B3E2_0" arrivalPos="496.00" arrivalSpeed="9.44" duration="294.00" routeLength="2495.93" waitingTime="16.00" waitingCount="1" stopTime="0.00" timeLoss="43.95" rerouteNo="0" devices="tripinfo_6.16" vType="paperVehicle" speedFactor="1.13" vaporized=""/>
    <tripinfo id="2.4" depart="217.00" departLane="N2A2_0" departPos="5.10" departSpeed="0.00" departDelay="0.00" arrival="437.00" arrivalLane="B2S2_0" arrivalPos="492.80" arrivalSpeed="8.92" duration="220.00" routeLength="1494.90" waitingTime="53.00" waitingCount="1" stopTime="0.00" timeLoss="69.90" rerouteNo="0" devices="tripinfo_2.4" vType="paperVehicle" speedFactor="1.09" vaporized=""/>
    <tripinfo id="6.17" depart="163.00" departLane="N1A1_0" departPos="5.10" departSpeed="0.00" departDelay="0.00" arrival="439.00" arrivalLane="B3E2_0" arrivalPos="496.00" arrivalSpeed="9.20" duration="276.00" routeLength="2495.93" waitingTime="0.00" waitingCount="0" stopTime="0.00" timeLoss="25.60" rerouteNo="0" devices="tripinfo_6.17" vType="paperVehicle" speedFactor="0.99" vaporized=""/>
    <tripinfo id="2.5" depart="260.00" departLane="N2A2_0" departPos="5.10" departSpeed="0.00" departDelay="0.00" arrival="439.00" arrivalLane="B2S2_0" arrivalPos="492.80" arrivalSpeed="9.83" duration="179.00" routeLength="1494.90" waitingTime="11.00" waitingCount="1" stopTime="0.00" timeLoss="29.13" rerouteNo="0" devices="tripinfo_2.5" vType="paperVehicle" speedFactor="1.10" vaporized=""/>
    <tripinfo id="6.18" depart="180.00" departLane="N1A1_0" departPos="5.10" departSpeed="0.00" departDelay="0.00" arrival="468.00" arrivalLane="B3E2_0" arrivalPos="496.00" arrivalSpeed="9.35" duration="288.00" routeLength="2495.93" waitingTime="13.00" waitingCount="1" stopTime="0.00" timeLoss="37.96" rerouteNo="0" devices="tripinfo_6.18" vType="paperVehicle" speedFactor="0.97" vaporized=""/>
    <tripinfo id="3.3" depart="272.00" departLane="N3A3_0" departPos="5.10" departSpeed="0.00" departDelay="0.00" arrival="476.00" arrivalLane="B3S3_0" arrivalPos="492.80" arrivalSpeed="9.95" duration="204.00" routeLength="1494.90" waitingTime="33.00" waitingCount="2" stopTime="0.00" timeLoss="53.68" rerouteNo="0" devices="tripinfo_3.3" vType="paperVehicle" speedFactor="1.14" vaporized=""/>
    <tripinfo id="6.19" depart="183.00" departLane="N1A1_0" departPos="5.10" departSpeed="0.00" departDelay="1.00" arrival="501.00" arrivalLane="B3E2_0" arrivalPos="496.00" arrivalSpeed="9.56" duration="318.00" routeLength="2495.93" waitingTime="39.00" waitingCount="2" stopTime="0.00" timeLoss="67.50" rerouteNo="0" devices="tripinfo_6.19" vType="paperVehicle" speedFactor="1.18" vaporized=""/>
    <tripinfo id="6.20" depart="186.00" departLane="N1A1_0" departPos="5.10" departSpeed="0.00" departDelay="0.00" arrival="503.00" arrivalLane="B3E2_0" arrivalPos="496.00" arrivalSpeed="9.81" duration="317.00" routeLength="2495.93" waitingTime="36.00" waitingCount="2" stopTime="0.00" timeLoss="67.08" rerouteNo="0" devices="tripinfo_6.20" vType="paperVehicle" speedFactor="1.10" vaporized=""/>
    <tripinfo id="6.21" depart="191.00" departLane="N1A1_0" departPos="5.10" departSpeed="0.00" departDelay="0.00" arrival="506.00" arrivalLane="B3E2_0" arrivalPos="496.00" arrivalSpeed="9.36" duration="315.00" routeLength="2495.93" waitingTime="31.00" waitingCount="2" stopTime="0.00" timeLoss="63.96" rerouteNo="0" devices="tripinfo_6.21" vType="paperVehicle" speedFactor="0.90" vaporized=""/>
    <tripinfo id="6.22" depart="203.00" departLane="N1A1_0" departPos="5.10" departSpeed="0.00" departDelay="0.00" arrival="508.00" arrivalLane="B3E2_0" arrivalPos="496.00" arrivalSpeed="9.10" duration="305.00" routeLength="2495.93" waitingTime="22.00" waitingCount="1" stopTime="0.00" timeLoss="54.26" rerouteNo="0" devices="tripinfo_6.22" vType="paperVehicle" speedFactor="1.09" vaporized=""/>
    <tripinfo id="6.23" depart="207.00" departLane="N1A1_0" departPos="5.10" departSpeed="0.00" departDelay="0.00" arrival="510.00" arrivalLane="B3E2_0" arrivalPos="496.00" arrivalSpeed="8.93" duration="303.00" routeLength="2495.93" waitingTime="22.00" waitingCount="1" stopTime="0.00" timeLoss="52.71" rerouteNo="0" devices="tripinfo_6.23" vType="paperVehicle" speedFactor="1.04" vaporized=""/>
    <tripinfo id="6.24" depart="211.00" departLane="N1A1_0" departPos="5.10" departSpeed="0.00" departDelay="0.00" arrival="515.00" arrivalLane="B3E2_0" arrivalPos="496.00" arrivalSpeed="9.48" duration="304.00" routeLength="2495.93" waitingTime="26.00" waitingCount="1" stopTime="0.00" timeLoss="53.48" rerouteNo="0" devices="tripinfo_6.24" vType="paperVehicle" speedFactor="1.04" vaporized=""/>
    <tripinfo id="6.25" depart="219.00" departLane="N1A1_0" departPos="5.10" departSpeed="0.00" departDelay="0.00" arrival="518.00" arrivalLane="B3E2_0" arrivalPos="496.00" arrivalSpeed="9.26" duration="299.00" routeLength="2495.93" waitingTime="24.00" waitingCount="1" stopTime="0.00" timeLoss="48.39" rerouteNo="0" devices="tripinfo_6.25" vType="paperVehicle" speedFactor="1.00" vaporized=""/>
    <tripinfo id="6.26" depart="224.00" departLane="N1A1_0" departPos="5.10" departSpeed="0.00" departDelay="0.00" arrival="520.00" arrivalLane="B3E2_0" arrivalPos="496.00" arrivalSpeed="8.87" duration="296.00" routeLength="2495.93" waitingTime="22.00" waitingCount="1" stopTime="0.00" timeLoss="45.41" rerouteNo="0" devices="tripinfo_6.26" vType="paperVehicle" speedFactor="0.90" vaporized=""/>
    <tripinfo id="6.27" depart="230.00" departLane="N1A1_0" departPos="5.10" departSpeed="0.00" departDelay="0.00" arrival="522.00" arrivalLane="B3E2_0" arrivalPos="496.00" arrivalSpeed="9.53" duration="292.00" routeLength="2495.93" waitingTime="15.00" waitingCount="1" stopTime="0.00" timeLoss="41.74" rerouteNo="0" devices="tripinfo_6.27" vType="paperVehicle" speedFactor="0.88" vaporized=""/>
    <tripinfo id="6.28" depart="238.00" departLane="N1A1_0" departPos="5.10" departSpeed="0.00" departDelay="0.00" arrival="525.00" arrivalLane="B3E2_0" arrivalPos="496.00" arrivalSpeed="9.56" duration="287.00" routeLength="2495.93" waitingTime="8.00" waitingCount="1" stopTime="0.00" timeLoss="35.74" rerouteNo="0" devices="tripinfo_6.28" vType="paperVehicle" speedFactor="0.85" vaporized=""/>
    <tripinfo id="6.29" depart="241.00" departLane="N1A1_0" departPos="5.10" departSpeed="0.00" departDelay="1.00" arrival="527.00" arrivalLane="B3E2_0" arrivalPos="496.00" arrivalSpeed="9.31" duration="286.00" routeLength="2495.93" waitingTime="7.00" waitingCount="1" stopTime="0.00" timeLoss="34.94" rerouteNo="0" devices="tripinfo_6.29" vType="paperVehicle" speedFactor="0.85" vaporized=""/>
    <tripinfo id="6.30" depart="252.00" departLane="N1A1_0" departPos="5.10" departSpeed="0.00" departDelay="0.00" arrival="529.00" arrivalLane="B3E2_0" arrivalPos="496.00" arrivalSpeed="9.62" duration="277.00" routeLength="2495.93" waitingTime="1.00" waitingCount="1" stopTime="0.00" timeLoss="26.34" rerouteNo="0" devices="tripinfo_6.30" vType="paperVehicle" speedFactor="1.17" vaporized=""/>
    <tripinfo id="6.31" depart="255.00" departLane="N1A1_0" departPos="5.10" departSpeed="0.00" departDelay="0.00" arrival="531.00" arrivalLane="B3E2_0" arrivalPos="496.00" arrivalSpeed="9.79" duration="276.00" routeLength="2495.93" waitingTime="0.00" waitingCount="0" stopTime="0.00" timeLoss="25.85" rerouteNo="0" devices="tripinfo_6.31" vType="paperVehicle" speedFactor="1.02" vaporized=""/>
    <tripinfo id="6.32" depart="260.00" departLane="N1A1_0" departPos="5.10" departSpeed="0.00" departDelay="0.00" arrival="533.00" arrivalLane="B3E2_0" arrivalPos="496.00" arrivalSpeed="9.98" duration="273.00" routeLength="2495.93" waitingTime="0.00" waitingCount="0" stopTime="0.00" timeLoss="22.89" rerouteNo="0" devices="tripinfo_6.32" vType="paperVehicle" speedFactor="1.00" vaporized=""/>
    <tripinfo id="6.33" depart="263.00" departLane="N1A1_0" departPos="5.10" departSpeed="0.00" departDelay="1.00" arrival="536.00" arrivalLane="B3E2_0" arrivalPos="496.00" arrivalSpeed="10.00" duration="273.00" routeLength="2495.93" waitingTime="0.00" waitingCount="0" stopTime="0.00" timeLoss="22.17" rerouteNo="0" devices="tripinfo_6.33" vType="paperVehicle" speedFactor="1.00" vaporized=""/>
    <tripinfo id="6.34" depart="268.00" departLane="N1A1_0" departPos="5.10" departSpeed="0.00" departDelay="0.00" arrival="539.00" arrivalLane="B3E2_0" arrivalPos="496.00" arrivalSpeed="9.14" duration="271.00" routeLength="2495.93" waitingTime="0.00" waitingCount="0" stopTime="0.00" timeLoss="20.33" rerouteNo="0" devices="tripinfo_6.34" vType="paperVehicle" speedFactor="0.90" vaporized=""/>
    <tripinfo id="1.5" depart="391.00" departLane="N1A1_0" departPos="5.10" departSpeed="0.00" departDelay="0.00" arrival="554.00" arrivalLane="B1S1_0" arrivalPos="492.80" arrivalSpeed="9.97" duration="163.00" routeLength="1494.90" waitingTime="0.00" waitingCount="0" stopTime="0.00" timeLoss="12.86" rerouteNo="0" devices="tripinfo_1.5" vType="paperVehicle" speedFactor="1.01" vaporized=""/>
    <tripinfo id="6.35" depart="286.00" departLane="N1A1_0" departPos="5.10" departSpeed="0.00" departDelay="0.00" arrival="557.00" arrivalLane="B3E2_0" arrivalPos="496.00" arrivalSpeed="9.01" duration="271.00" routeLength="2495.93" waitingTime="0.00" waitingCount="0" stopTime="0.00" timeLoss="20.47" rerouteNo="0" devices="tripinfo_6.35" vType="paperVehicle" speedFactor="1.02" vaporized=""/>
    <tripinfo id="6.36" depart="290.00" departLane="N1A1_0" departPos="5.10" departSpeed="0.00" departDelay="0.00" arrival="561.00" arrivalLane="B3E2_0" arrivalPos="496.00" arrivalSpeed="9.22" duration="271.00" routeLength="2495.93" waitingTime="0.00" waitingCount="0" stopTime="0.00" timeLoss="20.31" rerouteNo="0" devices="tripinfo_6.36" vType="paperVehicle" speedFactor="0.97" vaporized=""/>
    <tripinfo id="6.37" depart="293.00" departLane="N1A1_0" departPos="5.10" departSpeed="0.00" departDelay="1.00" arrival="563.00" arrivalLane="B3E2_0" arrivalPos="496.00" arrivalSpeed="9.57" duration="270.00" routeLength="2495.93" waitingTime="0.00" waitingCount="0" stopTime="0.00" timeLoss="19.31" rerouteNo="0" devices="tripinfo_6.37" vType="paperVehicle" speedFactor="1.08" vaporized=""/>
    <tripinfo id="6.38" depart="297.00" departLane="N1A1_0" departPos="5.10" departSpeed="0.00" departDelay="0.00" arrival="567.00" arrivalLane="B3E2_0" arrivalPos="496.00" arrivalSpeed="9.44" duration="270.00" routeLength="2495.93" waitingTime="0.00" waitingCount="0" stopTime="0.00" timeLoss="19.83" rerouteNo="0" devices="tripinfo_6.38" vType="paperVehicle" speedFactor="1.12" vaporized=""/>
    <tripinfo id="6.39" depart="300.00" departLane="N1A1_0" departPos="5.10" departSpeed="0.00" departDelay="0.00" arrival="571.00" arrivalLane="B3E2_0" arrivalPos="496.00" arrivalSpeed="9.77" duration="271.00" routeLength="2495.93" waitingTime="0.00" waitingCount="0" stopTime="0.00" timeLoss="20.33" rerouteNo="0" devices="tripinfo_6.39" vType="paperVehicle" speedFactor="1.02" vaporized=""/>
    <tripinfo id="3.4" depart="389.00" departLane="N3A3_0" departPos="5.10" departSpeed="0.00" departDelay="0.00" arrival="579.00" arrivalLane="B3S3_0" arrivalPos="492.80" arrivalSpeed="9.90" duration="190.00" routeLength="1494.90" waitingTime="22.00" waitingCount="1" stopTime="0.00" timeLoss="40.23" rerouteNo="0" devices="tripinfo_3.4" vType="paperVehicle" speedFactor="0.98" vaporized=""/>
    <tripinfo id="2.6" depart="393.00" departLane="N2A2_0" departPos="5.10" departSpeed="0.00" departDelay="0.00" arrival="600.00" arrivalLane="B2S2_0" arrivalPos="492.80" arrivalSpeed="9.46" duration="207.00" routeLength="1494.90" waitingTime="39.00" waitingCount="1" stopTime="0.00" timeLoss="57.01" rerouteNo="0" devices="tripinfo_2.6" vType="paperVehicle" speedFactor="1.09" vaporized=""/>
    <tripinfo id="2.7" depart="434.00" departLane="N2A2_0" departPos="5.10" departSpeed="0.00" departDelay="0.00" arrival="602.00" arrivalLane="B2S2_0" arrivalPos="492.80" arrivalSpeed="9.20" duration="168.00" routeLength="1494.90" waitingTime="3.00" waitingCount="1" stopTime="0.00" timeLoss="18.18" rerouteNo="0" devices="tripinfo_2.7" vType="paperVehicle" speedFactor="1.02" vaporized=""/>
    <tripinfo id="6.40" depart="303.00" departLane="N1A1_0" departPos="5.10" departSpeed="0.00" departDelay="2.00" arrival="605.00" arrivalLane="B3E2_0" arrivalPos="496.00" arrivalSpeed="8.87" duration="302.00" routeLength="2495.93" waitingTime="26.00" waitingCount="1" stopTime="0.00" timeLoss="51.10" rerouteNo="0" devices="tripinfo_6.40" vType="paperVehicle" speedFactor="0.99" vaporized=""/>
    <tripinfo id="6.41" depart="311.00" departLane="N1A1_0" departPos="5.10" departSpeed="0.00" departDelay="0.00" arrival="607.00" arrivalLane="B3E2_0" arrivalPos="496.00" arrivalSpeed="9.56" duration="296.00" routeLength="2495.93" waitingTime="22.00" waitingCount="1" stopTime="0.00" timeLoss="45.76" rerouteNo="0" devices="tripinfo_6.41" vType="paperVehicle" speedFactor="0.94" vaporized=""/>
    <tripinfo id="6.42" depart="317.00" departLane="N1A1_0" departPos="5.10" departSpeed="0.00" departDelay="0.00" arrival="609.00" arrivalLane="B3E2_0" arrivalPos="496.00" arrivalSpeed="9.87" duration="292.00" routeLength="2495.93" waitingTime="17.00" waitingCount="1" stopTime="0.00" timeLoss="41.54" rerouteNo="0" devices="tripinfo_6.42" vType="paperVehicle" speedFactor="0.88" vaporized=""/>
    <tripinfo id="5.5" depart="336.00" departLane="W2B1_0" departPos="5.10" departSpeed="0.00" departDelay="0.00" arrival="611.00" arrivalLane="B3E2_0" arrivalPos="496.00" arrivalSpeed="9.30" duration="275.00" routeLength="1994.90" waitingTime="49.00" waitingCount="2" stopTime="0.00" timeLoss="75.46" rerouteNo="0" devices="tripinfo_5.5" vType="paperVehicle" speedFactor="1.04" vaporized=""/>
    <tripinfo id="5.6" depart="407.00" departLane="W2B1_0" departPos="5.10" departSpeed="0.00" departDelay="0.00" arrival="624.00" arrivalLane="B3E2_0" arrivalPos="496.00" arrivalSpeed="9.21" duration="217.00" routeLength="1994.90" waitingTime="0.00" waitingCount="0" stopTime="0.00" timeLoss="16.76" rerouteNo="0" devices="tripinfo_5.6" vType="paperVehicle" speedFactor="1.00" vaporized=""/>
    <tripinfo id="6.43" depart="323.00" departLane="N1A1_0" departPos="5.10" departSpeed="0.00" departDelay="0.00" arrival="631.00" arrivalLane="B3E2_0" arrivalPos="496.00" arrivalSpeed="8.94" duration="308.00" routeLength="2495.93" waitingTime="35.00" waitingCount="1" stopTime="0.00" timeLoss="57.73" rerouteNo="0" devices="tripinfo_6.43" vType="paperVehicle" speedFactor="0.91" vaporized=""/>