<?xml version="1.0" encoding="UTF-8"?>

<!-- generated on 2022-01-22 13:05:54 by Eclipse SUMO sumo Version 1.10.0
<configuration xmlns:xsi="http://www.w3.org/2001/XMLSchema-instance" xsi:noNamespaceSchemaLocation="http://sumo.dlr.de/xsd/sumoConfiguration.xsd">

    <input>
        <net-file value="C:\Users\Lenovo\Documents\GitHub\Traffic_Simulation\GridNetwork\2x3net.net.xml"/>
        <route-files value="C:\Users\Lenovo\Documents\GitHub\Traffic_Simulation\GridNetwork\2x3Routes.xml"/>
        <additional-files value="C:\Users\Lenovo\Documents\GitHub\Traffic_Simulation\GridNetwork\additionals.xml"/>
    </input>

    <output>
        <tripinfo-output value="../tripinfo.xml"/>
        <statistic-output value="../statistics.xml"/>
    </output>

    <report>
        <no-step-log value="true"/>
    </report>

    <traci_server>
        <remote-port value="58791"/>
    </traci_server>

</configuration>
-->

<tripinfos xmlns:xsi="http://www.w3.org/2001/XMLSchema-instance" xsi:noNamespaceSchemaLocation="http://sumo.dlr.de/xsd/tripinfo_file.xsd">
    <tripinfo id="2.0" depart="67.00" departLane="N2A2_0" departPos="5.10" departSpeed="0.00" departDelay="0.00" arrival="236.00" arrivalLane="B2S2_0" arrivalPos="492.80" arrivalSpeed="9.18" duration="169.00" routeLength="1494.90" waitingTime="1.00" waitingCount="1" stopTime="0.00" timeLoss="18.67" rerouteNo="0" devices="tripinfo_2.0" vType="paperVehicle" speedFactor="1.03" vaporized=""/>
    <tripinfo id="3.0" depart="85.00" departLane="N3A3_0" departPos="5.10" departSpeed="0.00" departDelay="0.00" arrival="255.00" arrivalLane="B3S3_0" arrivalPos="492.80" arrivalSpeed="9.43" duration="170.00" routeLength="1494.90" waitingTime="4.00" waitingCount="1" stopTime="0.00" timeLoss="20.17" rerouteNo="0" devices="tripinfo_3.0" vType="paperVehicle" speedFactor="0.94" vaporized=""/>
    <tripinfo id="6.0" depart="0.00" departLane="N1A1_0" departPos="5.10" departSpeed="0.00" departDelay="0.00" arrival="285.00" arrivalLane="B3E2_0" arrivalPos="496.00" arrivalSpeed="8.74" duration="285.00" routeLength="2495.93" waitingTime="5.00" waitingCount="2" stopTime="0.00" timeLoss="35.16" rerouteNo="0" devices="tripinfo_6.0" vType="paperVehicle" speedFactor="1.06" vaporized=""/>
    <tripinfo id="4.0" depart="45.00" departLane="W1A1_0" departPos="5.10" departSpeed="0.00" departDelay="0.00" arrival="286.00" arrivalLane="A3E1_0" arrivalPos="496.00" arrivalSpeed="8.99" duration="241.00" routeLength="1994.90" waitingTime="13.00" waitingCount="3" stopTime="0.00" timeLoss="40.83" rerouteNo="0" devices="tripinfo_4.0" vType="paperVehicle" speedFactor="0.89" vaporized=""/>
    <tripinfo id="2.1" depart="120.00" departLane="N2A2_0" departPos="5.10" departSpeed="0.00" departDelay="0.00" arrival="295.00" arrivalLane="B2S2_0" arrivalPos="492.80" arrivalSpeed="9.42" duration="175.00" routeLength="1494.90" waitingTime="4.00" waitingCount="2" stopTime="0.00" timeLoss="25.46" rerouteNo="0" devices="tripinfo_2.1" vType="paperVehicle" speedFactor="0.87" vaporized=""/>
    <tripinfo id="4.1" depart="76.00" departLane="W1A1_0" departPos="5.10" departSpeed="0.00" departDelay="0.00" arrival="305.00" arrivalLane="A3E1_0" arrivalPos="496.00" arrivalSpeed="8.75" duration="229.00" routeLength="1994.90" waitingTime="7.00" waitingCount="2" stopTime="0.00" timeLoss="29.40" rerouteNo="0" devices="tripinfo_4.1" vType="paperVehicle" speedFactor="0.99" vaporized=""/>
    <tripinfo id="6.1" depart="3.00" departLane="N1A1_0" departPos="5.10" departSpeed="0.00" departDelay="2.00" arrival="306.00" arrivalLane="B3E2_0" arrivalPos="496.00" arrivalSpeed="9.80" duration="303.00" routeLength="2495.93" waitingTime="12.00" waitingCount="3" stopTime="0.00" timeLoss="52.36" rerouteNo="0" devices="tripinfo_6.1" vType="paperVehicle" speedFactor="0.94" vaporized=""/>
    <tripinfo id="6.2" depart="9.00" departLane="N1A1_0" departPos="5.10" departSpeed="0.00" departDelay="0.00" arrival="308.00" arrivalLane="B3E2_0" arrivalPos="496.00" arrivalSpeed="9.24" duration="299.00" routeLength="2495.93" waitingTime="17.00" waitingCount="3" stopTime="0.00" timeLoss="48.67" rerouteNo="0" devices="tripinfo_6.2" vType="paperVehicle" speedFactor="1.01" vaporized=""/>
    <tripinfo id="4.2" depart="86.00" departLane="W1A1_0" departPos="5.10" departSpeed="0.00" departDelay="0.00" arrival="325.00" arrivalLane="A3E1_0" arrivalPos="496.00" arrivalSpeed="9.53" duration="239.00" routeLength="1994.90" waitingTime="11.00" waitingCount="3" stopTime="0.00" timeLoss="39.41" rerouteNo="0" devices="tripinfo_4.2" vType="paperVehicle" speedFactor="1.16" vaporized=""/>
    <tripinfo id="6.3" depart="22.00" departLane="N1A1_0" departPos="5.10" departSpeed="0.00" departDelay="0.00" arrival="326.00" arrivalLane="B3E2_0" arrivalPos="496.00" arrivalSpeed="9.59" duration="304.00" routeLength="2495.93" waitingTime="15.00" waitingCount="4" stopTime="0.00" timeLoss="53.40" rerouteNo="0" devices="tripinfo_6.3" vType="paperVehicle" speedFactor="1.08" vaporized=""/>
    <tripinfo id="6.4" depart="29.00" departLane="N1A1_0" departPos="5.10" departSpeed="0.00" departDelay="0.00" arrival="328.00" arrivalLane="B3E2_0" arrivalPos="496.00" arrivalSpeed="8.95" duration="299.00" routeLength="2495.93" waitingTime="15.00" waitingCount="2" stopTime="0.00" timeLoss="48.98" rerouteNo="0" devices="tripinfo_6.4" vType="paperVehicle" speedFactor="1.03" vaporized=""/>
    <tripinfo id="6.5" depart="33.00" departLane="N1A1_0" departPos="5.10" departSpeed="0.00" departDelay="0.00" arrival="346.00" arrivalLane="B3E2_0" arrivalPos="496.00" arrivalSpeed="9.28" duration="313.00" routeLength="2495.93" waitingTime="25.00" waitingCount="4" stopTime="0.00" timeLoss="61.81" rerouteNo="0" devices="tripinfo_6.5" vType="paperVehicle" speedFactor="0.83" vaporized=""/>
    <tripinfo id="5.0" depart="115.00" departLane="W2B1_0" departPos="5.10" departSpeed="0.00" departDelay="0.00" arrival="348.00" arrivalLane="B3E2_0" arrivalPos="496.00" arrivalSpeed="9.43" duration="233.00" routeLength="1994.90" waitingTime="7.00" waitingCount="2" stopTime="0.00" timeLoss="33.07" rerouteNo="0" devices="tripinfo_5.0" vType="paperVehicle" speedFactor="0.89" vaporized=""/>
    <tripinfo id="3.1" depart="183.00" departLane="N3A3_0" departPos="5.10" departSpeed="0.00" departDelay="0.00" arrival="355.00" arrivalLane="B3S3_0" arrivalPos="492.80" arrivalSpeed="8.98" duration="172.00" routeLength="1494.90" waitingTime="3.00" waitingCount="1" stopTime="0.00" timeLoss="21.87" rerouteNo="0" devices="tripinfo_3.1" vType="paperVehicle" speedFactor="0.88" vaporized=""/>
    <tripinfo id="2.2" depart="188.00" departLane="N2A2_0" departPos="5.10" departSpeed="0.00" departDelay="0.00" arrival="356.00" arrivalLane="B2S2_0" arrivalPos="492.80" arrivalSpeed="8.94" duration="168.00" routeLength="1494.90" waitingTime="1.00" waitingCount="1" stopTime="0.00" timeLoss="17.90" rerouteNo="0" devices="tripinfo_2.2" vType="paperVehicle" speedFactor="0.85" vaporized=""/>
    <tripinfo id="3.2" depart="190.00" departLane="N3A3_0" departPos="5.10" departSpeed="0.00" departDelay="0.00" arrival="358.00" arrivalLane="B3S3_0" arrivalPos="492.80" arrivalSpeed="8.92" duration="168.00" routeLength="1494.90" waitingTime="1.00" waitingCount="1" stopTime="0.00" timeLoss="18.00" rerouteNo="0" devices="tripinfo_3.2" vType="paperVehicle" speedFactor="1.17" vaporized=""/>
    <tripinfo id="6.6" depart="36.00" departLane="N1A1_0" departPos="5.10" departSpeed="0.00" departDelay="0.00" arrival="366.00" arrivalLane="B3E2_0" arrivalPos="496.00" arrivalSpeed="9.74" duration="330.00" routeLength="2495.93" waitingTime="39.00" waitingCount="5" stopTime="0.00" timeLoss="79.42" rerouteNo="0" devices="tripinfo_6.6" vType="paperVehicle" speedFactor="1.05" vaporized=""/>
    <tripinfo id="6.7" depart="45.00" departLane="N1A1_0" departPos="5.10" departSpeed="0.00" departDelay="0.00" arrival="368.00" arrivalLane="B3E2_0" arrivalPos="496.00" arrivalSpeed="9.23" duration="323.00" routeLength="2495.93" waitingTime="27.00" waitingCount="5" stopTime="0.00" timeLoss="72.24" rerouteNo="0" devices="tripinfo_6.7" vType="paperVehicle" speedFactor="0.94" vaporized=""/>
    <tripinfo id="6.8" depart="58.00" departLane="N1A1_0" departPos="5.10" departSpeed="0.00" departDelay="0.00" arrival="386.00" arrivalLane="B3E2_0" arrivalPos="496.00" arrivalSpeed="9.55" duration="328.00" routeLength="2495.93" waitingTime="37.00" waitingCount="5" stopTime="0.00" timeLoss="77.65" rerouteNo="0" devices="tripinfo_6.8" vType="paperVehicle" speedFactor="0.86" vaporized=""/>
    <tripinfo id="6.9" depart="61.00" departLane="N1A1_0" departPos="5.10" departSpeed="0.00" departDelay="1.00" arrival="388.00" arrivalLane="B3E2_0" arrivalPos="496.00" arrivalSpeed="9.53" duration="327.00" routeLength="2495.93" waitingTime="32.00" waitingCount="5" stopTime="0.00" timeLoss="76.90" rerouteNo="0" devices="tripinfo_6.9" vType="paperVehicle" speedFactor="1.09" vaporized=""/>
    <tripinfo id="6.10" depart="68.00" departLane="N1A1_0" departPos="5.10" departSpeed="0.00" departDelay="0.00" arrival="406.00" arrivalLane="B3E2_0" arrivalPos="496.00" arrivalSpeed="9.61" duration="338.00" routeLength="2495.93" waitingTime="42.00" waitingCount="6" stopTime="0.00" timeLoss="87.02" rerouteNo="0" devices="tripinfo_6.10" vType="paperVehicle" speedFactor="1.05" vaporized=""/>
    <tripinfo id="4.3" depart="163.00" departLane="W1A1_0" departPos="5.10" departSpeed="0.00" departDelay="0.00" arrival="406.00" arrivalLane="A3E1_0" arrivalPos="496.00" arrivalSpeed="8.96" duration="243.00" routeLength="1994.90" waitingTime="15.00" waitingCount="3" stopTime="0.00" timeLoss="42.93" rerouteNo="0" devices="tripinfo_4.3" vType="paperVehicle" speedFactor="0.90" vaporized=""/>
    <tripinfo id="6.11" depart="73.00" departLane="N1A1_0" departPos="5.10" departSpeed="0.00" departDelay="0.00" arrival="408.00" arrivalLane="B3E2_0" arrivalPos="496.00" arrivalSpeed="8.79" duration="335.00" routeLength="2495.93" waitingTime="33.00" waitingCount="4" stopTime="0.00" timeLoss="84.34" rerouteNo="0" devices="tripinfo_6.11" vType="paperVehicle" speedFactor="1.12" vaporized=""/>
    <tripinfo id="3.3" depart="240.00" departLane="N3A3_0" departPos="5.10" departSpeed="0.00" departDelay="0.00" arrival="415.00" arrivalLane="B3S3_0" arrivalPos="492.80" arrivalSpeed="8.81" duration="175.00" routeLength="1494.90" waitingTime="5.00" waitingCount="2" stopTime="0.00" timeLoss="25.32" rerouteNo="0" devices="tripinfo_3.3" vType="paperVehicle" speedFactor="0.91" vaporized=""/>
    <tripinfo id="6.12" depart="76.00" departLane="N1A1_0" departPos="5.10" departSpeed="0.00" departDelay="0.00" arrival="425.00" arrivalLane="B3E2_0" arrivalPos="496.00" arrivalSpeed="9.52" duration="349.00" routeLength="2495.93" waitingTime="47.00" waitingCount="6" stopTime="0.00" timeLoss="98.77" rerouteNo="0" devices="tripinfo_6.12" vType="paperVehicle" speedFactor="0.93" vaporized=""/>
    <tripinfo id="6.13" depart="79.00" departLane="N1A1_0" departPos="5.10" departSpeed="0.00" departDelay="1.00" arrival="428.00" arrivalLane="B3E2_0" arrivalPos="496.00" arrivalSpeed="8.78" duration="349.00" routeLength="2495.93" waitingTime="41.00" waitingCount="6" stopTime="0.00" timeLoss="98.54" rerouteNo="0" devices="tripinfo_6.13" vType="paperVehicle" speedFactor="0.88" vaporized=""/>
    <tripinfo id="1.0" depart="147.00" departLane="N1A1_0" departPos="5.10" departSpeed="0.00" departDelay="2.00" arrival="438.00" arrivalLane="B1S1_0" arrivalPos="492.80" arrivalSpeed="8.86" duration="291.00" routeLength="1494.90" waitingTime="57.00" waitingCount="9" stopTime="0.00" timeLoss="140.72" rerouteNo="0" devices="tripinfo_1.0" vType="paperVehicle" speedFactor="0.99" vaporized=""/>
    <tripinfo id="5.1" depart="187.00" departLane="W2B1_0" departPos="5.10" departSpeed="0.00" departDelay="0.00" arrival="445.00" arrivalLane="B3E2_0" arrivalPos="496.00" arrivalSpeed="9.26" duration="258.00" routeLength="1994.90" waitingTime="26.00" waitingCount="4" stopTime="0.00" timeLoss="58.32" rerouteNo="0" devices="tripinfo_5.1" vType="paperVehicle" speedFactor="0.85" vaporized=""/>
    <tripinfo id="5.2" depart="197.00" departLane="W2B1_0" departPos="5.10" departSpeed="0.00" departDelay="0.00" arrival="448.00" arrivalLane="B3E2_0" arrivalPos="496.00" arrivalSpeed="8.91" duration="251.00" routeLength="1994.90" waitingTime="17.00" waitingCount="3" stopTime="0.00" timeLoss="50.94" rerouteNo="0" devices="tripinfo_5.2" vType="paperVehicle" speedFactor="1.00" vaporized=""/>
    <tripinfo id="3.4" depart="274.00" departLane="N3A3_0" departPos="5.10" departSpeed="0.00" departDelay="0.00" arrival="455.00" arrivalLane="B3S3_0" arrivalPos="492.80" arrivalSpeed="9.56" duration="181.00" routeLength="1494.90" waitingTime="9.00" waitingCount="2" stopTime="0.00" timeLoss="31.28" rerouteNo="0" devices="tripinfo_3.4" vType="paperVehicle" speedFactor="0.97" vaporized=""/>
    <tripinfo id="2.3" depart="281.00" departLane="N2A2_0" departPos="5.10" departSpeed="0.00" departDelay="0.00" arrival="456.00" arrivalLane="B2S2_0" arrivalPos="492.80" arrivalSpeed="9.72" duration="175.00" routeLength="1494.90" waitingTime="4.00" waitingCount="2" stopTime="0.00" timeLoss="24.65" rerouteNo="0" devices="tripinfo_2.3" vType="paperVehicle" speedFactor="0.94" vaporized=""/>
    <tripinfo id="3.5" depart="284.00" departLane="N3A3_0" departPos="5.10" departSpeed="0.00" departDelay="0.00" arrival="457.00" arrivalLane="B3S3_0" arrivalPos="492.80" arrivalSpeed="9.91" duration="173.00" routeLength="1494.90" waitingTime="1.00" waitingCount="1" stopTime="0.00" timeLoss="23.42" rerouteNo="0" devices="tripinfo_3.5" vType="paperVehicle" speedFactor="1.06" vaporized=""/>
    <tripinfo id="6.14" depart="83.00" departLane="N1A1_0" departPos="5.10" departSpeed="0.00" departDelay="0.00" arrival="466.00" arrivalLane="B3E2_0" arrivalPos="496.00" arrivalSpeed="9.87" duration="383.00" routeLength="2495.93" waitingTime="68.00" waitingCount="8" stopTime="0.00" timeLoss="132.81" rerouteNo="0" devices="tripinfo_6.14" vType="paperVehicle" speedFactor="0.94" vaporized=""/>
    <tripinfo id="6.15" depart="87.00" departLane="N1A1_0" departPos="5.10" departSpeed="0.00" departDelay="0.00" arrival="469.00" arrivalLane="B3E2_0" arrivalPos="496.00" arrivalSpeed="9.82" duration="382.00" routeLength="2495.93" waitingTime="63.00" waitingCount="8" stopTime="0.00" timeLoss="131.00" rerouteNo="0" devices="tripinfo_6.15" vType="paperVehicle" speedFactor="1.02" vaporized=""/>
    <tripinfo id="3.6" depart="288.00" departLane="N3A3_0" departPos="5.10" departSpeed="0.00" departDelay="0.00" arrival="475.00" arrivalLane="B3S3_0" arrivalPos="492.80" arrivalSpeed="9.37" duration="187.00" routeLength="1494.90" waitingTime="14.00" waitingCount="2" stopTime="0.00" timeLoss="37.08" rerouteNo="0" devices="tripinfo_3.6" vType="paperVehicle" speedFactor="0.96" vaporized=""/>
    <tripinfo id="3.7" depart="299.00" departLane="N3A3_0" departPos="5.10" departSpeed="0.00" departDelay="0.00" arrival="478.00" arrivalLane="B3S3_0" arrivalPos="492.80" arrivalSpeed="9.45" duration="179.00" routeLength="1494.90" waitingTime="7.00" waitingCount="2" stopTime="0.00" timeLoss="28.76" rerouteNo="0" devices="tripinfo_3.7" vType="paperVehicle" speedFactor="1.01" vaporized=""/>
    <tripinfo id="5.3" depart="204.00" departLane="W2B1_0" departPos="5.10" departSpeed="0.00" departDelay="0.00" arrival="486.00" arrivalLane="B3E2_0" arrivalPos="496.00" arrivalSpeed="8.90" duration="282.00" routeLength="1994.90" waitingTime="43.00" waitingCount="5" stopTime="0.00" timeLoss="82.28" rerouteNo="0" devices="tripinfo_5.3" vType="paperVehicle" speedFactor="1.02" vaporized=""/>
    <tripinfo id="6.16" depart="91.00" departLane="N1A1_0" departPos="5.10" departSpeed="0.00" departDelay="0.00" arrival="489.00" arrivalLane="B3E2_0" arrivalPos="496.00" arrivalSpeed="9.92" duration="398.00" routeLength="2495.93" waitingTime="69.00" waitingCount="10" stopTime="0.00" timeLoss="147.42" rerouteNo="0" devices="tripinfo_6.16" vType="paperVehicle" speedFactor="1.01" vaporized=""/>
    <tripinfo id="3.8" depart="330.00" departLane="N3A3_0" departPos="5.10" departSpeed="0.00" departDelay="0.00" arrival="494.00" arrivalLane="B3S3_0" arrivalPos="492.80" arrivalSpeed="8.97" duration="164.00" routeLength="1494.90" waitingTime="0.00" waitingCount="0" stopTime="0.00" timeLoss="14.47" rerouteNo="0" devices="tripinfo_3.8" vType="paperVehicle" speedFactor="0.97" vaporized=""/>
    <tripinfo id="6.17" depart="104.00" departLane="N1A1_0" departPos="5.10" departSpeed="0.00" departDelay="0.00" arrival="505.00" arrivalLane="B3E2_0" arrivalPos="496.00" arrivalSpeed="8.95" duration="401.00" routeLength="2495.93" waitingTime="71.00" waitingCount="9" stopTime="0.00" timeLoss="150.78" rerouteNo="0" devices="tripinfo_6.17" vType="paperVehicle" speedFactor="0.98" vaporized=""/>
    <tripinfo id="5.4" depart="235.00" departLane="W2B1_0" departPos="5.10" departSpeed="0.00" departDelay="0.00" arrival="508.00" arrivalLane="B3E2_0" arrivalPos="496.00" arrivalSpeed="9.28" duration="273.00" routeLength="1994.90" waitingTime="32.00" waitingCount="4" stopTime="0.00" timeLoss="73.27" rerouteNo="0" devices="tripinfo_5.4" vType="paperVehicle" speedFactor="0.88" vaporized=""/>
    <tripinfo id="6.18" depart="117.00" departLane="N1A1_0" departPos="5.10" departSpeed="0.00" departDelay="0.00" arrival="526.00" arrivalLane="B3E2_0" arrivalPos="496.00" arrivalSpeed="9.89" duration="409.00" routeLength="2495.93" waitingTime="78.00" waitingCount="10" stopTime="0.00" timeLoss="158.03" rerouteNo="0" devices="tripinfo_6.18" vType="paperVehicle" speedFactor="0.83" vaporized=""/>
    <tripinfo id="4.4" depart="290.00" departLane="W1A1_0" departPos="5.10" departSpeed="0.00" departDelay="0.00" arrival="526.00" arrivalLane="A3E1_0" arrivalPos="496.00" arrivalSpeed="9.64" duration="236.00" routeLength="1994.90" waitingTime="8.00" waitingCount="3" stopTime="0.00" timeLoss="36.23" rerouteNo="0" devices="tripinfo_4.4" vType="paperVehicle" speedFactor="0.98" vaporized=""/>
    <tripinfo id="6.19" depart="123.00" departLane="N1A1_0" departPos="5.10" departSpeed="0.00" departDelay="0.00" arrival="529.00" arrivalLane="B3E2_0" arrivalPos="496.00" arrivalSpeed="9.81" duration="406.00" routeLength="2495.93" waitingTime="67.00" waitingCount="9" stopTime="0.00" timeLoss="154.78" rerouteNo="0" devices="tripinfo_6.19" vType="paperVehicle" speedFactor="0.92" vaporized=""/>
    <tripinfo id="1.1" depart="177.00" departLane="N1A1_0" departPos="5.10" departSpeed="0.00" departDelay="0.00" arrival="535.00" arrivalLane="B1S1_0" arrivalPos="492.80" arrivalSpeed="9.97" duration="358.00" routeLength="1494.90" waitingTime="72.00" waitingCount="13" stopTime="0.00" timeLoss="208.38" rerouteNo="0" devices="tripinfo_1.1" vType="paperVehicle" speedFactor="1.04" vaporized=""/>
    <tripinfo id="2.4" depart="357.00" departLane="N2A2_0" departPos="5.10" departSpeed="0.00" departDelay="0.00" arrival="536.00" arrivalLane="B2S2_0" arrivalPos="492.80" arrivalSpeed="9.36" duration="179.00" routeLength="1494.90" waitingTime="8.00" waitingCount="2" stopTime="0.00" timeLoss="29.17" rerouteNo="0" devices="tripinfo_2.4" vType="paperVehicle" speedFactor="1.02" vaporized=""/>
    <tripinfo id="6.20" depart="126.00" departLane="N1A1_0" departPos="5.10" departSpeed="0.00" departDelay="1.00" arrival="546.00" arrivalLane="B3E2_0" arrivalPos="496.00" arrivalSpeed="9.10" duration="420.00" routeLength="2495.93" waitingTime="84.00" waitingCount="12" stopTime="0.00" timeLoss="169.37" rerouteNo="0" devices="tripinfo_6.20" vType="paperVehicle" speedFactor="0.95" vaporized=""/>
    <tripinfo id="4.5" depart="315.00" departLane="W1A1_0" departPos="5.10" departSpeed="0.00" departDelay="0.00" arrival="546.00" arrivalLane="A3E1_0" arrivalPos="496.00" arrivalSpeed="8.77" duration="231.00" routeLength="1994.90" waitingTime="6.00" waitingCount="2" stopTime="0.00" timeLoss="31.31" rerouteNo="0" devices="tripinfo_4.5" vType="paperVehicle" speedFactor="1.02" vaporized=""/>
    <tripinfo id="6.21" depart="129.00" departLane="N1A1_0" departPos="5.10" departSpeed="0.00" departDelay="3.00" arrival="548.00" arrivalLane="B3E2_0" arrivalPos="496.00" arrivalSpeed="9.64" duration="419.00" routeLength="2495.93" waitingTime="72.00" waitingCount="11" stopTime="0.00" timeLoss="168.68" rerouteNo="0" devices="tripinfo_6.21" vType="paperVehicle" speedFactor="1.13" vaporized=""/>
    <tripinfo id="2.5" depart="390.00" departLane="N2A2_0" departPos="5.10" departSpeed="0.00" departDelay="0.00" arrival="555.00" arrivalLane="B2S2_0" arrivalPos="492.80" arrivalSpeed="9.83" duration="165.00" routeLength="1494.90" waitingTime="0.00" waitingCount="0" stopTime="0.00" timeLoss="14.97" rerouteNo="0" devices="tripinfo_2.5" vType="paperVehicle" speedFactor="0.91" vaporized=""/>
    <tripinfo id="5.5" depart="271.00" departLane="W2B1_0" departPos="5.10" departSpeed="0.00" departDelay="0.00" arrival="565.00" arrivalLane="B3E2_0" arrivalPos="496.00" arrivalSpeed="9.28" duration="294.00" routeLength="1994.90" waitingTime="43.00" waitingCount="6" stopTime="0.00" timeLoss="94.49" rerouteNo="0" devices="tripinfo_5.5" vType="paperVehicle" speedFactor="1.02" vaporized=""/>
    <tripinfo id="4.6" depart="338.00" departLane="W1A1_0" departPos="5.10" departSpeed="0.00" departDelay="0.00" arrival="566.00" arrivalLane="A3E1_0" arrivalPos="496.00" arrivalSpeed="9.15" duration="228.00" routeLength="1994.90" waitingTime="2.00" waitingCount="2" stopTime="0.00" timeLoss="28.04" rerouteNo="0" devices="tripinfo_4.6" vType="paperVehicle" speedFactor="1.00" vaporized=""/>
    <tripinfo id="6.22" depart="132.00" departLane="N1A1_0" departPos="5.10" departSpeed="0.00" departDelay="5.00" arrival="568.00" arrivalLane="B3E2_0" arrivalPos="496.00" arrivalSpeed="9.19" duration="436.00" routeLength="2495.93" waitingTime="86.00" waitingCount="12" stopTime="0.00" timeLoss="185.68" rerouteNo="0" devices="tripinfo_6.22" vType="paperVehicle" speedFactor="0.93" vaporized=""/>
    <tripinfo id="6.23" depart="135.00" departLane="N1A1_0" departPos="5.10" departSpeed="0.00" departDelay="7.00" arrival="586.00" arrivalLane="B3E2_0" arrivalPos="496.00" arrivalSpeed="8.88" duration="451.00" routeLength="2495.93" waitingTime="93.00" waitingCount="12" stopTime="0.00" timeLoss="200.92" rerouteNo="0" devices="tripinfo_6.23" vType="paperVehicle" speedFactor="1.18" vaporized=""/>
    <tripinfo id="6.24" depart="138.00" departLane="N1A1_0" departPos="5.10" departSpeed="0.00" departDelay="7.00" arrival="588.00" arrivalLane="B3E2_0" arrivalPos="496.00" arrivalSpeed="9.65" duration="450.00" routeLength="2495.93" waitingTime="95.00" waitingCount="13" stopTime="0.00" timeLoss="199.81" rerouteNo="0" devices="tripinfo_6.24" vType="paperVehicle" speedFactor="1.15" vaporized=""/>
    <tripinfo id="3.9" depart="418.00" departLane="N3A3_0" departPos="5.10" departSpeed="0.00" departDelay="0.00" arrival="595.00" arrivalLane="B3S3_0" arrivalPos="492.80" arrivalSpeed="9.14" duration="177.00" routeLength="1494.90" waitingTime="6.00" waitingCount="2" stopTime="0.00" timeLoss="27.43" rerouteNo="0" devices="tripinfo_3.9" vType="paperVehicle" speedFactor="0.95" vaporized=""/>
    <tripinfo id="4.7" depart="369.00" departLane="W1A1_0" departPos="5.10" departSpeed="0.00" departDelay="0.00" arrival="605.00" arrivalLane="A3E1_0" arrivalPos="496.00" arrivalSpeed="9.46" duration="236.00" routeLength="1994.90" waitingTime="7.00" waitingCount="3" stopTime="0.00" timeLoss="36.23" rerouteNo="0" devices="tripinfo_4.7" vType="paperVehicle" speedFactor="0.83" vaporized=""/>
    <tripinfo id="6.25" depart="141.00" departLane="N1A1_0" departPos="5.10" departSpeed="0.00" departDelay="7.00" arrival="606.00" arrivalLane="B3E2_0" arrivalPos="496.00" arrivalSpeed="9.97" duration="465.00" routeLength="2495.93" waitingTime="99.00" waitingCount="14" stopTime="0.00" timeLoss="214.23" rerouteNo="0" devices="tripinfo_6.25" vType="paperVehicle" speedFactor="1.01" vaporized=""/>
    <tripinfo id="5.6" depart="311.00" departLane="W2B1_0" departPos="5.10" departSpeed="0.00" departDelay="0.00" arrival="608.00" arrivalLane="B3E2_0" arrivalPos="496.00" arrivalSpeed="8.99" duration="297.00" routeLength="1994.90" waitingTime="42.00" waitingCount="6" stopTime="0.00" timeLoss="97.06" rerouteNo="0" devices="tripinfo_5.6" vType="paperVehicle" speedFactor="1.00" vaporized=""/>
    <tripinfo id="6.26" depart="144.00" departLane="N1A1_0" departPos="5.10" departSpeed="0.00" departDelay="8.00" arrival="626.00" arrivalLane="B3E2_0" arrivalPos="496.00" arrivalSpeed="8.72" duration="482.00" routeLength="2495.93" waitingTime="113.00" waitingCount="15" stopTime="0.00" timeLoss="231.40" rerouteNo="0" devices="tripinfo_6.26" vType="paperVehicle" speedFactor="1.17" vaporized=""/>
    <tripinfo id="6.27" depart="150.00" departLane="N1A1_0" departPos="5.10" departSpeed="0.00" departDelay="4.00" arrival="628.00" arrivalLane="B3E2_0" arrivalPos="496.00" arrivalSpeed="9.08" duration="478.00" routeLength="2495.93" waitingTime="102.00" waitingCount="15" stopTime="0.00" timeLoss="227.89" rerouteNo="0" devices="tripinfo_6.27" vType="paperVehicle" speedFactor="1.02" vaporized=""/>
    <tripinfo id="2.6" depart="461.00" departLane="N2A2_0" departPos="5.10" departSpeed="0.00" departDelay="0.00" arrival="636.00" arrivalLane="B2S2_0" arrivalPos="492.80" arrivalSpeed="9.69" duration="175.00" routeLength="1494.90" waitingTime="4.00" waitingCount="2" stopTime="0.00" timeLoss="24.63" rerouteNo="0" devices="tripinfo_2.6" vType="paperVehicle" speedFactor="1.06" vaporized=""/>
    <tripinfo id="6.28" depart="153.00" departLane="N1A1_0" departPos="5.10" departSpeed="0.00" departDelay="6.00" arrival="645.00" arrivalLane="B3E2_0" arrivalPos="496.00" arrivalSpeed="9.41" duration="492.00" routeLength="2495.93" waitingTime="104.00" waitingCount="15" stopTime="0.00" timeLoss="241.70" rerouteNo="0" devices="tripinfo_6.28" vType="paperVehicle" speedFactor="0.97" vaporized=""/>
    <tripinfo id="6.29" depart="157.00" departLane="N1A1_0" departPos="5.10" departSpeed="0.00" departDelay="0.00" arrival="648.00" arrivalLane="B3E2_0" arrivalPos="496.00" arrivalSpeed="8.85" duration="491.00" routeLength="2495.93" waitingTime="105.00" waitingCount="16" stopTime="0.00" timeLoss="240.91" rerouteNo="0" devices="tripinfo_6.29" vType="paperVehicle" speedFactor="1.18" vaporized=""/>
    <tripinfo id="3.10" depart="477.00" departLane="N3A3_0" departPos="5.10" departSpeed="0.00" departDelay="0.00" arrival="655.00" arrivalLane="B3S3_0" arrivalPos="492.80" arrivalSpeed="9.87" duration="178.00" routeLength="1494.90" waitingTime="8.00" waitingCount="2" stopTime="0.00" timeLoss="28.45" rerouteNo="0" devices="tripinfo_3.10" vType="paperVehicle" speedFactor="0.87" vaporized=""/>
    <tripinfo id="6.30" depart="161.00" departLane="N1A1_0" departPos="5.10" departSpeed="0.00" departDelay="0.00" arrival="665.00" arrivalLane="B3E2_0" arrivalPos="496.00" arrivalSpeed="9.74" duration="504.00" routeLength="2495.93" waitingTime="110.00" waitingCount="17" stopTime="0.00" timeLoss="253.69" rerouteNo="0" devices="tripinfo_6.30" vType="paperVehicle" speedFactor="1.10" vaporized=""/>
    <tripinfo id="6.31" depart="164.00" departLane="N1A1_0" departPos="5.10" departSpeed="0.00" departDelay="1.00" arrival="668.00" arrivalLane="B3E2_0" arrivalPos="496.00" arrivalSpeed="8.96" duration="504.00" routeLength="2495.93" waitingTime="107.00" waitingCount="16" stopTime="0.00" timeLoss="253.23" rerouteNo="0" devices="tripinfo_6.31" vType="paperVehicle" speedFactor="1.03" vaporized=""/>
    <tripinfo id="3.11" depart="508.00" departLane="N3A3_0" departPos="5.10" departSpeed="0.00" departDelay="0.00" arrival="675.00" arrivalLane="B3S3_0" arrivalPos="492.80" arrivalSpeed="9.35" duration="167.00" routeLength="1494.90" waitingTime="0.00" waitingCount="0" stopTime="0.00" timeLoss="17.05" rerouteNo="0" devices="tripinfo_3.11" vType="paperVehicle" speedFactor="0.99" vaporized=""/>
    <tripinfo id="6.32" depart="167.00" departLane="N1A1_0" departPos="5.10" departSpeed="0.00" departDelay="0.00" arrival="686.00" arrivalLane="B3E2_0" arrivalPos="496.00" arrivalSpeed="8.98" duration="519.00" routeLength="2495.93" waitingTime="109.00" waitingCount="18" stopTime="0.00" timeLoss="268.35" rerouteNo="0" devices="tripinfo_6.32" vType="paperVehicle" speedFactor="0.96" vaporized=""/>
    <tripinfo id="5.7" depart="383.00" departLane="W2B1_0" departPos="5.10" departSpeed="0.00" departDelay="0.00" arrival="688.00" arrivalLane="B3E2_0" arrivalPos="496.00" arrivalSpeed="9.64" duration="305.00" routeLength="1994.90" waitingTime="46.00" waitingCount="6" stopTime="0.00" timeLoss="104.97" rerouteNo="0" devices="tripinfo_5.7" vType="paperVehicle" speedFactor="1.06" vaporized=""/>
    <tripinfo id="5.8" depart="389.00" departLane="W2B1_0" departPos="5.10" departSpeed="0.00" departDelay="0.00" arrival="706.00" arrivalLane="B3E2_0" arrivalPos="496.00" arrivalSpeed="8.71" duration="317.00" routeLength="1994.90" waitingTime="56.00" waitingCount="7" stopTime="0.00" timeLoss="116.95" rerouteNo="0" devices="tripinfo_5.8" vType="paperVehicle" speedFactor="1.01" vaporized=""/>
    <tripinfo id="4.8" depart="479.00" departLane="W1A1_0" departPos="5.10" departSpeed="0.00" departDelay="0.00" arrival="706.00" arrivalLane="A3E1_0" arrivalPos="496.00" arrivalSpeed="9.49" duration="227.00" routeLength="1994.90" waitingTime="2.00" waitingCount="2" stopTime="0.00" timeLoss="27.21" rerouteNo="0" devices="tripinfo_4.8" vType="paperVehicle" speedFactor="1.01" vaporized=""/>
    <tripinfo id="6.33" depart="170.00" departLane="N1A1_0" departPos="5.10" departSpeed="0.00" departDelay="0.00" arrival="709.00" arrivalLane="B3E2_0" arrivalPos="496.00" arrivalSpeed="9.20" duration="539.00" routeLength="2495.93" waitingTime="114.00" waitingCount="19" stopTime="0.00" timeLoss="288.40" rerouteNo="0" devices="tripinfo_6.33" vType="paperVehicle" speedFactor="1.09" vaporized=""/>