<?xml version="1.0" encoding="UTF-8"?>

<!-- generated on 2022-02-02 13:59:34 by Eclipse SUMO sumo Version 1.10.0
<configuration xmlns:xsi="http://www.w3.org/2001/XMLSchema-instance" xsi:noNamespaceSchemaLocation="http://sumo.dlr.de/xsd/sumoConfiguration.xsd">

    <input>
        <net-file value="C:\Users\Marcus\Desktop\Hauptordner\Studium\Masterstudium\3.%20Semester\Projekt_Sim-Opt\Traffic_Simulation\GridNetwork\2x3net.net.xml"/>
        <route-files value="C:\Users\Marcus\Desktop\Hauptordner\Studium\Masterstudium\3.%20Semester\Projekt_Sim-Opt\Traffic_Simulation\GridNetwork\2x3Routes.xml"/>
        <additional-files value="C:\Users\Marcus\Desktop\Hauptordner\Studium\Masterstudium\3.%20Semester\Projekt_Sim-Opt\Traffic_Simulation\GridNetwork\additionals.xml"/>
    </input>

    <output>
        <tripinfo-output value="../tripinfo.xml"/>
        <statistic-output value="../statistics.xml"/>
    </output>

    <report>
        <no-step-log value="true"/>
    </report>

    <traci_server>
        <remote-port value="59824"/>
    </traci_server>

</configuration>
-->

<tripinfos xmlns:xsi="http://www.w3.org/2001/XMLSchema-instance" xsi:noNamespaceSchemaLocation="http://sumo.dlr.de/xsd/tripinfo_file.xsd">
    <tripinfo id="3.0" depart="1.00" departLane="N3A3_0" departPos="5.10" departSpeed="0.00" departDelay="0.00" arrival="175.00" arrivalLane="B3S3_0" arrivalPos="492.80" arrivalSpeed="9.08" duration="174.00" routeLength="1494.90" waitingTime="5.00" waitingCount="2" stopTime="0.00" timeLoss="24.12" rerouteNo="0" devices="tripinfo_3.0" vType="paperVehicle" speedFactor="0.94" vaporized=""/>
    <tripinfo id="2.0" depart="4.00" departLane="N2A2_0" departPos="5.10" departSpeed="0.00" departDelay="0.00" arrival="175.00" arrivalLane="B2S2_0" arrivalPos="492.80" arrivalSpeed="9.57" duration="171.00" routeLength="1494.90" waitingTime="4.00" waitingCount="1" stopTime="0.00" timeLoss="21.25" rerouteNo="0" devices="tripinfo_2.0" vType="paperVehicle" speedFactor="1.08" vaporized=""/>
    <tripinfo id="1.0" depart="11.00" departLane="N1A1_0" departPos="5.10" departSpeed="0.00" departDelay="2.00" arrival="178.00" arrivalLane="B1S1_0" arrivalPos="492.80" arrivalSpeed="8.86" duration="167.00" routeLength="1494.90" waitingTime="0.00" waitingCount="0" stopTime="0.00" timeLoss="17.14" rerouteNo="0" devices="tripinfo_1.0" vType="paperVehicle" speedFactor="0.83" vaporized=""/>
    <tripinfo id="2.1" depart="9.00" departLane="N2A2_0" departPos="5.10" departSpeed="0.00" departDelay="0.00" arrival="178.00" arrivalLane="B2S2_0" arrivalPos="492.80" arrivalSpeed="8.99" duration="169.00" routeLength="1494.90" waitingTime="1.00" waitingCount="1" stopTime="0.00" timeLoss="18.64" rerouteNo="0" devices="tripinfo_2.1" vType="paperVehicle" speedFactor="1.05" vaporized=""/>
    <tripinfo id="2.2" depart="30.00" departLane="N2A2_0" departPos="5.10" departSpeed="0.00" departDelay="0.00" arrival="201.00" arrivalLane="B2S2_0" arrivalPos="492.80" arrivalSpeed="8.94" duration="171.00" routeLength="1494.90" waitingTime="5.00" waitingCount="1" stopTime="0.00" timeLoss="21.51" rerouteNo="0" devices="tripinfo_2.2" vType="paperVehicle" speedFactor="1.03" vaporized=""/>
    <tripinfo id="3.1" depart="69.00" departLane="N3A3_0" departPos="5.10" departSpeed="0.00" departDelay="0.00" arrival="234.00" arrivalLane="B3S3_0" arrivalPos="492.80" arrivalSpeed="9.31" duration="165.00" routeLength="1494.90" waitingTime="0.00" waitingCount="0" stopTime="0.00" timeLoss="15.48" rerouteNo="0" devices="tripinfo_3.1" vType="paperVehicle" speedFactor="0.87" vaporized=""/>
    <tripinfo id="1.1" depart="65.00" departLane="N1A1_0" departPos="5.10" departSpeed="0.00" departDelay="0.00" arrival="249.00" arrivalLane="B1S1_0" arrivalPos="492.80" arrivalSpeed="9.78" duration="184.00" routeLength="1494.90" waitingTime="12.00" waitingCount="2" stopTime="0.00" timeLoss="33.89" rerouteNo="0" devices="tripinfo_1.1" vType="paperVehicle" speedFactor="0.98" vaporized=""/>
    <tripinfo id="3.2" depart="77.00" departLane="N3A3_0" departPos="5.10" departSpeed="0.00" departDelay="0.00" arrival="249.00" arrivalLane="B3S3_0" arrivalPos="492.80" arrivalSpeed="8.88" duration="172.00" routeLength="1494.90" waitingTime="7.00" waitingCount="1" stopTime="0.00" timeLoss="22.15" rerouteNo="0" devices="tripinfo_3.2" vType="paperVehicle" speedFactor="1.18" vaporized=""/>
    <tripinfo id="3.3" depart="93.00" departLane="N3A3_0" departPos="5.10" departSpeed="0.00" departDelay="0.00" arrival="255.00" arrivalLane="B3S3_0" arrivalPos="492.80" arrivalSpeed="9.16" duration="162.00" routeLength="1494.90" waitingTime="0.00" waitingCount="0" stopTime="0.00" timeLoss="12.17" rerouteNo="0" devices="tripinfo_3.3" vType="paperVehicle" speedFactor="1.01" vaporized=""/>
    <tripinfo id="1.2" depart="77.00" departLane="N1A1_0" departPos="5.10" departSpeed="0.00" departDelay="7.00" arrival="260.00" arrivalLane="B1S1_0" arrivalPos="492.80" arrivalSpeed="8.86" duration="183.00" routeLength="1494.90" waitingTime="3.00" waitingCount="1" stopTime="0.00" timeLoss="33.24" rerouteNo="0" devices="tripinfo_1.2" vType="paperVehicle" speedFactor="0.95" vaporized=""/>
    <tripinfo id="1.3" depart="92.00" departLane="N1A1_0" departPos="5.10" departSpeed="0.00" departDelay="0.00" arrival="267.00" arrivalLane="B1S1_0" arrivalPos="492.80" arrivalSpeed="8.85" duration="175.00" routeLength="1494.90" waitingTime="1.00" waitingCount="1" stopTime="0.00" timeLoss="24.94" rerouteNo="0" devices="tripinfo_1.3" vType="paperVehicle" speedFactor="1.15" vaporized=""/>
    <tripinfo id="3.4" depart="108.00" departLane="N3A3_0" departPos="5.10" departSpeed="0.00" departDelay="0.00" arrival="272.00" arrivalLane="B3S3_0" arrivalPos="492.80" arrivalSpeed="9.90" duration="164.00" routeLength="1494.90" waitingTime="0.00" waitingCount="0" stopTime="0.00" timeLoss="13.59" rerouteNo="0" devices="tripinfo_3.4" vType="paperVehicle" speedFactor="1.03" vaporized=""/>
    <tripinfo id="2.3" depart="60.00" departLane="N2A2_0" departPos="5.10" departSpeed="0.00" departDelay="0.00" arrival="274.00" arrivalLane="B2S2_0" arrivalPos="492.80" arrivalSpeed="9.16" duration="214.00" routeLength="1494.90" waitingTime="42.00" waitingCount="2" stopTime="0.00" timeLoss="64.05" rerouteNo="0" devices="tripinfo_2.3" vType="paperVehicle" speedFactor="1.02" vaporized=""/>
    <tripinfo id="2.4" depart="64.00" departLane="N2A2_0" departPos="5.10" departSpeed="0.00" departDelay="0.00" arrival="276.00" arrivalLane="B2S2_0" arrivalPos="492.80" arrivalSpeed="9.25" duration="212.00" routeLength="1494.90" waitingTime="38.00" waitingCount="2" stopTime="0.00" timeLoss="62.13" rerouteNo="0" devices="tripinfo_2.4" vType="paperVehicle" speedFactor="1.01" vaporized=""/>
    <tripinfo id="5.0" depart="49.00" departLane="W2B1_0" departPos="5.10" departSpeed="0.00" departDelay="0.00" arrival="296.00" arrivalLane="B3E2_0" arrivalPos="496.00" arrivalSpeed="8.72" duration="247.00" routeLength="1994.90" waitingTime="27.00" waitingCount="1" stopTime="0.00" timeLoss="46.81" rerouteNo="0" devices="tripinfo_5.0" vType="paperVehicle" speedFactor="0.94" vaporized=""/>
    <tripinfo id="6.0" depart="0.00" departLane="N1A1_0" departPos="5.10" departSpeed="0.00" departDelay="0.00" arrival="298.00" arrivalLane="B3E2_0" arrivalPos="496.00" arrivalSpeed="9.44" duration="298.00" routeLength="2495.93" waitingTime="12.00" waitingCount="3" stopTime="0.00" timeLoss="47.67" rerouteNo="0" devices="tripinfo_6.0" vType="paperVehicle" speedFactor="1.06" vaporized=""/>
    <tripinfo id="4.0" depart="30.00" departLane="W1A1_0" departPos="5.10" departSpeed="0.00" departDelay="0.00" arrival="298.00" arrivalLane="A3E1_0" arrivalPos="496.00" arrivalSpeed="8.76" duration="268.00" routeLength="1994.90" waitingTime="47.00" waitingCount="2" stopTime="0.00" timeLoss="67.80" rerouteNo="0" devices="tripinfo_4.0" vType="paperVehicle" speedFactor="1.05" vaporized=""/>
    <tripinfo id="6.1" depart="3.00" departLane="N1A1_0" departPos="5.10" departSpeed="0.00" departDelay="0.00" arrival="301.00" arrivalLane="B3E2_0" arrivalPos="496.00" arrivalSpeed="9.87" duration="298.00" routeLength="2495.93" waitingTime="9.00" waitingCount="2" stopTime="0.00" timeLoss="47.18" rerouteNo="0" devices="tripinfo_6.1" vType="paperVehicle" speedFactor="1.01" vaporized=""/>
    <tripinfo id="6.2" depart="8.00" departLane="N1A1_0" departPos="5.10" departSpeed="0.00" departDelay="0.00" arrival="303.00" arrivalLane="B3E2_0" arrivalPos="496.00" arrivalSpeed="9.99" duration="295.00" routeLength="2495.93" waitingTime="8.00" waitingCount="2" stopTime="0.00" timeLoss="44.78" rerouteNo="0" devices="tripinfo_6.2" vType="paperVehicle" speedFactor="1.03" vaporized=""/>
    <tripinfo id="6.3" depart="21.00" departLane="N1A1_0" departPos="5.10" departSpeed="0.00" departDelay="0.00" arrival="305.00" arrivalLane="B3E2_0" arrivalPos="496.00" arrivalSpeed="9.38" duration="284.00" routeLength="2495.93" waitingTime="5.00" waitingCount="1" stopTime="0.00" timeLoss="33.40" rerouteNo="0" devices="tripinfo_6.3" vType="paperVehicle" speedFactor="0.89" vaporized=""/>
    <tripinfo id="6.4" depart="24.00" departLane="N1A1_0" departPos="5.10" departSpeed="0.00" departDelay="1.00" arrival="307.00" arrivalLane="B3E2_0" arrivalPos="496.00" arrivalSpeed="9.32" duration="283.00" routeLength="2495.93" waitingTime="4.00" waitingCount="1" stopTime="0.00" timeLoss="32.66" rerouteNo="0" devices="tripinfo_6.4" vType="paperVehicle" speedFactor="0.94" vaporized=""/>
    <tripinfo id="6.5" depart="27.00" departLane="N1A1_0" departPos="5.10" departSpeed="0.00" departDelay="0.00" arrival="309.00" arrivalLane="B3E2_0" arrivalPos="496.00" arrivalSpeed="9.55" duration="282.00" routeLength="2495.93" waitingTime="3.00" waitingCount="1" stopTime="0.00" timeLoss="31.94" rerouteNo="0" devices="tripinfo_6.5" vType="paperVehicle" speedFactor="0.86" vaporized=""/>
    <tripinfo id="6.6" depart="30.00" departLane="N1A1_0" departPos="5.10" departSpeed="0.00" departDelay="2.00" arrival="312.00" arrivalLane="B3E2_0" arrivalPos="496.00" arrivalSpeed="8.71" duration="282.00" routeLength="2495.93" waitingTime="1.00" waitingCount="1" stopTime="0.00" timeLoss="31.34" rerouteNo="0" devices="tripinfo_6.6" vType="paperVehicle" speedFactor="1.09" vaporized=""/>
    <tripinfo id="6.7" depart="35.00" departLane="N1A1_0" departPos="5.10" departSpeed="0.00" departDelay="0.00" arrival="314.00" arrivalLane="B3E2_0" arrivalPos="496.00" arrivalSpeed="9.69" duration="279.00" routeLength="2495.93" waitingTime="1.00" waitingCount="1" stopTime="0.00" timeLoss="28.46" rerouteNo="0" devices="tripinfo_6.7" vType="paperVehicle" speedFactor="1.12" vaporized=""/>
    <tripinfo id="6.8" depart="42.00" departLane="N1A1_0" departPos="5.10" departSpeed="0.00" departDelay="0.00" arrival="316.00" arrivalLane="B3E2_0" arrivalPos="496.00" arrivalSpeed="9.54" duration="274.00" routeLength="2495.93" waitingTime="0.00" waitingCount="0" stopTime="0.00" timeLoss="23.34" rerouteNo="0" devices="tripinfo_6.8" vType="paperVehicle" speedFactor="0.99" vaporized=""/>
    <tripinfo id="6.9" depart="46.00" departLane="N1A1_0" departPos="5.10" departSpeed="0.00" departDelay="0.00" arrival="318.00" arrivalLane="B3E2_0" arrivalPos="496.00" arrivalSpeed="8.94" duration="272.00" routeLength="2495.93" waitingTime="0.00" waitingCount="0" stopTime="0.00" timeLoss="21.46" rerouteNo="0" devices="tripinfo_6.9" vType="paperVehicle" speedFactor="0.93" vaporized=""/>
    <tripinfo id="6.10" depart="49.00" departLane="N1A1_0" departPos="5.10" departSpeed="0.00" departDelay="1.00" arrival="320.00" arrivalLane="B3E2_0" arrivalPos="496.00" arrivalSpeed="8.81" duration="271.00" routeLength="2495.93" waitingTime="0.00" waitingCount="0" stopTime="0.00" timeLoss="20.64" rerouteNo="0" devices="tripinfo_6.10" vType="paperVehicle" speedFactor="0.88" vaporized=""/>
    <tripinfo id="6.11" depart="52.00" departLane="N1A1_0" departPos="5.10" departSpeed="0.00" departDelay="0.00" arrival="337.00" arrivalLane="B3E2_0" arrivalPos="496.00" arrivalSpeed="9.68" duration="285.00" routeLength="2495.93" waitingTime="9.00" waitingCount="1" stopTime="0.00" timeLoss="34.77" rerouteNo="0" devices="tripinfo_6.11" vType="paperVehicle" speedFactor="0.94" vaporized=""/>
    <tripinfo id="2.5" depart="107.00" departLane="N2A2_0" departPos="5.10" departSpeed="0.00" departDelay="0.00" arrival="338.00" arrivalLane="B2S2_0" arrivalPos="492.80" arrivalSpeed="8.88" duration="231.00" routeLength="1494.90" waitingTime="58.00" waitingCount="2" stopTime="0.00" timeLoss="81.48" rerouteNo="0" devices="tripinfo_2.5" vType="paperVehicle" speedFactor="0.90" vaporized=""/>
    <tripinfo id="5.1" depart="105.00" departLane="W2B1_0" departPos="5.10" departSpeed="0.00" departDelay="0.00" arrival="340.00" arrivalLane="B3E2_0" arrivalPos="496.00" arrivalSpeed="8.70" duration="235.00" routeLength="1994.90" waitingTime="10.00" waitingCount="2" stopTime="0.00" timeLoss="34.89" rerouteNo="0" devices="tripinfo_5.1" vType="paperVehicle" speedFactor="1.10" vaporized=""/>
    <tripinfo id="2.6" depart="126.00" departLane="N2A2_0" departPos="5.10" departSpeed="0.00" departDelay="0.00" arrival="341.00" arrivalLane="B2S2_0" arrivalPos="492.80" arrivalSpeed="9.46" duration="215.00" routeLength="1494.90" waitingTime="47.00" waitingCount="1" stopTime="0.00" timeLoss="64.79" rerouteNo="0" devices="tripinfo_2.6" vType="paperVehicle" speedFactor="0.90" vaporized=""/>
    <tripinfo id="5.2" depart="110.00" departLane="W2B1_0" departPos="5.10" departSpeed="0.00" departDelay="0.00" arrival="342.00" arrivalLane="B3E2_0" arrivalPos="496.00" arrivalSpeed="9.67" duration="232.00" routeLength="1994.90" waitingTime="6.00" waitingCount="1" stopTime="0.00" timeLoss="32.32" rerouteNo="0" devices="tripinfo_5.2" vType="paperVehicle" speedFactor="1.09" vaporized=""/>
    <tripinfo id="2.7" depart="136.00" departLane="N2A2_0" departPos="5.10" departSpeed="0.00" departDelay="0.00" arrival="343.00" arrivalLane="B2S2_0" arrivalPos="492.80" arrivalSpeed="9.20" duration="207.00" routeLength="1494.90" waitingTime="35.00" waitingCount="2" stopTime="0.00" timeLoss="56.86" rerouteNo="0" devices="tripinfo_2.7" vType="paperVehicle" speedFactor="0.85" vaporized=""/>
    <tripinfo id="1.4" depart="169.00" departLane="N1A1_0" departPos="5.10" departSpeed="0.00" departDelay="5.00" arrival="345.00" arrivalLane="B1S1_0" arrivalPos="492.80" arrivalSpeed="9.45" duration="176.00" routeLength="1494.90" waitingTime="0.00" waitingCount="0" stopTime="0.00" timeLoss="25.74" rerouteNo="0" devices="tripinfo_1.4" vType="paperVehicle" speedFactor="0.99" vaporized=""/>
    <tripinfo id="1.5" depart="175.00" departLane="N1A1_0" departPos="5.10" departSpeed="0.00" departDelay="0.00" arrival="350.00" arrivalLane="B1S1_0" arrivalPos="492.80" arrivalSpeed="10.00" duration="175.00" routeLength="1494.90" waitingTime="0.00" waitingCount="0" stopTime="0.00" timeLoss="24.53" rerouteNo="0" devices="tripinfo_1.5" vType="paperVehicle" speedFactor="1.04" vaporized=""/>
    <tripinfo id="3.5" depart="124.00" departLane="N3A3_0" departPos="5.10" departSpeed="0.00" departDelay="0.00" arrival="355.00" arrivalLane="B3S3_0" arrivalPos="492.80" arrivalSpeed="9.66" duration="231.00" routeLength="1494.90" waitingTime="60.00" waitingCount="2" stopTime="0.00" timeLoss="81.28" rerouteNo="0" devices="tripinfo_3.5" vType="paperVehicle" speedFactor="1.00" vaporized=""/>
    <tripinfo id="1.6" depart="184.00" departLane="N1A1_0" departPos="5.10" departSpeed="0.00" departDelay="2.00" arrival="357.00" arrivalLane="B1S1_0" arrivalPos="492.80" arrivalSpeed="9.96" duration="173.00" routeLength="1494.90" waitingTime="0.00" waitingCount="0" stopTime="0.00" timeLoss="22.75" rerouteNo="0" devices="tripinfo_1.6" vType="paperVehicle" speedFactor="1.06" vaporized=""/>
    <tripinfo id="4.1" depart="99.00" departLane="W1A1_0" departPos="5.10" departSpeed="0.00" departDelay="0.00" arrival="358.00" arrivalLane="A3E1_0" arrivalPos="496.00" arrivalSpeed="9.45" duration="259.00" routeLength="1994.90" waitingTime="36.00" waitingCount="2" stopTime="0.00" timeLoss="59.01" rerouteNo="0" devices="tripinfo_4.1" vType="paperVehicle" speedFactor="1.02" vaporized=""/>
    <tripinfo id="3.6" depart="165.00" departLane="N3A3_0" departPos="5.10" departSpeed="0.00" departDelay="0.00" arrival="358.00" arrivalLane="B3S3_0" arrivalPos="492.80" arrivalSpeed="9.68" duration="193.00" routeLength="1494.90" waitingTime="22.00" waitingCount="2" stopTime="0.00" timeLoss="42.57" rerouteNo="0" devices="tripinfo_3.6" vType="paperVehicle" speedFactor="0.88" vaporized=""/>
    <tripinfo id="6.12" depart="59.00" departLane="N1A1_0" departPos="5.10" departSpeed="0.00" departDelay="0.00" arrival="366.00" arrivalLane="B3E2_0" arrivalPos="496.00" arrivalSpeed="9.44" duration="307.00" routeLength="2495.93" waitingTime="24.00" waitingCount="3" stopTime="0.00" timeLoss="56.66" rerouteNo="0" devices="tripinfo_6.12" vType="paperVehicle" speedFactor="1.16" vaporized=""/>
    <tripinfo id="6.13" depart="68.00" departLane="N1A1_0" departPos="5.10" departSpeed="0.00" departDelay="3.00" arrival="369.00" arrivalLane="B3E2_0" arrivalPos="496.00" arrivalSpeed="8.93" duration="301.00" routeLength="2495.93" waitingTime="12.00" waitingCount="3" stopTime="0.00" timeLoss="50.11" rerouteNo="0" devices="tripinfo_6.13" vType="paperVehicle" speedFactor="0.89" vaporized=""/>
    <tripinfo id="6.14" depart="71.00" departLane="N1A1_0" departPos="5.10" departSpeed="0.00" departDelay="3.00" arrival="371.00" arrivalLane="B3E2_0" arrivalPos="496.00" arrivalSpeed="9.09" duration="300.00" routeLength="2495.93" waitingTime="10.00" waitingCount="3" stopTime="0.00" timeLoss="49.32" rerouteNo="0" devices="tripinfo_6.14" vType="paperVehicle" speedFactor="0.83" vaporized=""/>
    <tripinfo id="6.15" depart="74.00" departLane="N1A1_0" departPos="5.10" departSpeed="0.00" departDelay="5.00" arrival="373.00" arrivalLane="B3E2_0" arrivalPos="496.00" arrivalSpeed="9.33" duration="299.00" routeLength="2495.93" waitingTime="7.00" waitingCount="3" stopTime="0.00" timeLoss="48.40" rerouteNo="0" devices="tripinfo_6.15" vType="paperVehicle" speedFactor="0.92" vaporized=""/>
    <tripinfo id="6.16" depart="80.00" departLane="N1A1_0" departPos="5.10" departSpeed="0.00" departDelay="10.00" arrival="375.00" arrivalLane="B3E2_0" arrivalPos="496.00" arrivalSpeed="9.16" duration="295.00" routeLength="2495.93" waitingTime="2.00" waitingCount="1" stopTime="0.00" timeLoss="44.92" rerouteNo="0" devices="tripinfo_6.16" vType="paperVehicle" speedFactor="1.13" vaporized=""/>
    <tripinfo id="6.17" depart="83.00" departLane="N1A1_0" departPos="5.10" departSpeed="0.00" departDelay="12.00" arrival="378.00" arrivalLane="B3E2_0" arrivalPos="496.00" arrivalSpeed="8.96" duration="295.00" routeLength="2495.93" waitingTime="1.00" waitingCount="1" stopTime="0.00" timeLoss="43.80" rerouteNo="0" devices="tripinfo_6.17" vType="paperVehicle" speedFactor="0.93" vaporized=""/>
    <tripinfo id="6.18" depart="95.00" departLane="N1A1_0" departPos="5.10" departSpeed="0.00" departDelay="1.00" arrival="380.00" arrivalLane="B3E2_0" arrivalPos="496.00" arrivalSpeed="9.81" duration="285.00" routeLength="2495.93" waitingTime="1.00" waitingCount="1" stopTime="0.00" timeLoss="34.29" rerouteNo="0" devices="tripinfo_6.18" vType="paperVehicle" speedFactor="1.17" vaporized=""/>
    <tripinfo id="6.19" depart="98.00" departLane="N1A1_0" departPos="5.10" departSpeed="0.00" departDelay="2.00" arrival="382.00" arrivalLane="B3E2_0" arrivalPos="496.00" arrivalSpeed="9.99" duration="284.00" routeLength="2495.93" waitingTime="0.00" waitingCount="0" stopTime="0.00" timeLoss="33.03" rerouteNo="0" devices="tripinfo_6.19" vType="paperVehicle" speedFactor="0.99" vaporized=""/>
    <tripinfo id="6.20" depart="101.00" departLane="N1A1_0" departPos="5.10" departSpeed="0.00" departDelay="0.00" arrival="384.00" arrivalLane="B3E2_0" arrivalPos="496.00" arrivalSpeed="8.86" duration="283.00" routeLength="2495.93" waitingTime="0.00" waitingCount="0" stopTime="0.00" timeLoss="32.12" rerouteNo="0" devices="tripinfo_6.20" vType="paperVehicle" speedFactor="0.97" vaporized=""/>
    <tripinfo id="6.21" depart="104.00" departLane="N1A1_0" departPos="5.10" departSpeed="0.00" departDelay="0.00" arrival="386.00" arrivalLane="B3E2_0" arrivalPos="496.00" arrivalSpeed="9.31" duration="282.00" routeLength="2495.93" waitingTime="0.00" waitingCount="0" stopTime="0.00" timeLoss="31.61" rerouteNo="0" devices="tripinfo_6.21" vType="paperVehicle" speedFactor="1.18" vaporized=""/>
    <tripinfo id="6.22" depart="109.00" departLane="N1A1_0" departPos="5.10" departSpeed="0.00" departDelay="0.00" arrival="409.00" arrivalLane="B3E2_0" arrivalPos="496.00" arrivalSpeed="9.87" duration="300.00" routeLength="2495.93" waitingTime="17.00" waitingCount="1" stopTime="0.00" timeLoss="49.56" rerouteNo="0" devices="tripinfo_6.22" vType="paperVehicle" speedFactor="0.96" vaporized=""/>
    <tripinfo id="6.23" depart="112.00" departLane="N1A1_0" departPos="5.10" departSpeed="0.00" departDelay="0.00" arrival="411.00" arrivalLane="B3E2_0" arrivalPos="496.00" arrivalSpeed="9.59" duration="299.00" routeLength="2495.93" waitingTime="16.00" waitingCount="1" stopTime="0.00" timeLoss="49.02" rerouteNo="0" devices="tripinfo_6.23" vType="paperVehicle" speedFactor="1.04" vaporized=""/>
    <tripinfo id="6.24" depart="115.00" departLane="N1A1_0" departPos="5.10" departSpeed="0.00" departDelay="1.00" arrival="414.00" arrivalLane="B3E2_0" arrivalPos="496.00" arrivalSpeed="9.46" duration="299.00" routeLength="2495.93" waitingTime="15.00" waitingCount="1" stopTime="0.00" timeLoss="48.17" rerouteNo="0" devices="tripinfo_6.24" vType="paperVehicle" speedFactor="1.04" vaporized=""/>
    <tripinfo id="2.8" depart="172.00" departLane="N2A2_0" departPos="5.10" departSpeed="0.00" departDelay="0.00" arrival="414.00" arrivalLane="B2S2_0" arrivalPos="492.80" arrivalSpeed="9.83" duration="242.00" routeLength="1494.90" waitingTime="75.00" waitingCount="2" stopTime="0.00" timeLoss="92.44" rerouteNo="0" devices="tripinfo_2.8" vType="paperVehicle" speedFactor="0.91" vaporized=""/>
    <tripinfo id="6.25" depart="118.00" departLane="N1A1_0" departPos="5.10" departSpeed="0.00" departDelay="0.00" arrival="416.00" arrivalLane="B3E2_0" arrivalPos="496.00" arrivalSpeed="9.82" duration="298.00" routeLength="2495.93" waitingTime="15.00" waitingCount="1" stopTime="0.00" timeLoss="47.56" rerouteNo="0" devices="tripinfo_6.25" vType="paperVehicle" speedFactor="1.09" vaporized=""/>
    <tripinfo id="2.9" depart="196.00" departLane="N2A2_0" departPos="5.10" departSpeed="0.00" departDelay="0.00" arrival="417.00" arrivalLane="B2S2_0" arrivalPos="492.80" arrivalSpeed="9.29" duration="221.00" routeLength="1494.90" waitingTime="50.00" waitingCount="2" stopTime="0.00" timeLoss="70.79" rerouteNo="0" devices="tripinfo_2.9" vType="paperVehicle" speedFactor="1.03" vaporized=""/>
    <tripinfo id="6.26" depart="126.00" departLane="N1A1_0" departPos="5.10" departSpeed="0.00" departDelay="0.00" arrival="418.00" arrivalLane="B3E2_0" arrivalPos="496.00" arrivalSpeed="9.46" duration="292.00" routeLength="2495.93" waitingTime="13.00" waitingCount="1" stopTime="0.00" timeLoss="41.22" rerouteNo="0" devices="tripinfo_6.26" vType="paperVehicle" speedFactor="0.88" vaporized=""/>
    <tripinfo id="2.10" depart="245.00" departLane="N2A2_0" departPos="5.10" departSpeed="0.00" departDelay="0.00" arrival="419.00" arrivalLane="B2S2_0" arrivalPos="492.80" arrivalSpeed="9.96" duration="174.00" routeLength="1494.90" waitingTime="6.00" waitingCount="1" stopTime="0.00" timeLoss="23.73" rerouteNo="0" devices="tripinfo_2.10" vType="paperVehicle" speedFactor="1.07" vaporized=""/>
    <tripinfo id="2.11" depart="248.00" departLane="N2A2_0" departPos="5.10" departSpeed="0.00" departDelay="0.00" arrival="421.00" arrivalLane="B2S2_0" arrivalPos="492.80" arrivalSpeed="9.31" duration="173.00" routeLength="1494.90" waitingTime="4.00" waitingCount="1" stopTime="0.00" timeLoss="23.34" rerouteNo="0" devices="tripinfo_2.11" vType="paperVehicle" speedFactor="1.01" vaporized=""/>
    <tripinfo id="3.7" depart="176.00" departLane="N3A3_0" departPos="5.10" departSpeed="0.00" departDelay="0.00" arrival="426.00" arrivalLane="B3S3_0" arrivalPos="492.80" arrivalSpeed="9.49" duration="250.00" routeLength="1494.90" waitingTime="79.00" waitingCount="2" stopTime="0.00" timeLoss="99.65" rerouteNo="0" devices="tripinfo_3.7" vType="paperVehicle" speedFactor="1.02" vaporized=""/>
    <tripinfo id="3.8" depart="184.00" departLane="N3A3_0" departPos="5.10" departSpeed="0.00" departDelay="0.00" arrival="428.00" arrivalLane="B3S3_0" arrivalPos="492.80" arrivalSpeed="9.79" duration="244.00" routeLength="1494.90" waitingTime="70.00" waitingCount="2" stopTime="0.00" timeLoss="93.56" rerouteNo="0" devices="tripinfo_3.8" vType="paperVehicle" speedFactor="0.98" vaporized=""/>
    <tripinfo id="3.9" depart="223.00" departLane="N3A3_0" departPos="5.10" departSpeed="0.00" departDelay="0.00" arrival="430.00" arrivalLane="B3S3_0" arrivalPos="492.80" arrivalSpeed="9.36" duration="207.00" routeLength="1494.90" waitingTime="34.00" waitingCount="2" stopTime="0.00" timeLoss="56.84" rerouteNo="0" devices="tripinfo_3.9" vType="paperVehicle" speedFactor="0.92" vaporized=""/>
    <tripinfo id="3.10" depart="234.00" departLane="N3A3_0" departPos="5.10" departSpeed="0.00" departDelay="0.00" arrival="432.00" arrivalLane="B3S3_0" arrivalPos="492.80" arrivalSpeed="9.23" duration="198.00" routeLength="1494.90" waitingTime="24.00" waitingCount="1" stopTime="0.00" timeLoss="48.01" rerouteNo="0" devices="tripinfo_3.10" vType="paperVehicle" speedFactor="1.12" vaporized=""/>
    <tripinfo id="4.2" depart="185.00" departLane="W1A1_0" departPos="5.10" departSpeed="0.00" departDelay="0.00" arrival="436.00" arrivalLane="A3E1_0" arrivalPos="496.00" arrivalSpeed="8.93" duration="251.00" routeLength="1994.90" waitingTime="22.00" waitingCount="2" stopTime="0.00" timeLoss="50.91" rerouteNo="0" devices="tripinfo_4.2" vType="paperVehicle" speedFactor="1.03" vaporized=""/>
    <tripinfo id="1.7" depart="251.00" departLane="N1A1_0" departPos="5.10" departSpeed="0.00" departDelay="1.00" arrival="437.00" arrivalLane="B1S1_0" arrivalPos="492.80" arrivalSpeed="9.89" duration="186.00" routeLength="1494.90" waitingTime="4.00" waitingCount="1" stopTime="0.00" timeLoss="36.48" rerouteNo="0" devices="tripinfo_1.7" vType="paperVehicle" speedFactor="1.06" vaporized=""/>
    <tripinfo id="4.3" depart="188.00" departLane="W1A1_0" departPos="5.10" departSpeed="0.00" departDelay="2.00" arrival="438.00" arrivalLane="A3E1_0" arrivalPos="496.00" arrivalSpeed="8.79" duration="250.00" routeLength="1994.90" waitingTime="19.00" waitingCount="2" stopTime="0.00" timeLoss="50.36" rerouteNo="0" devices="tripinfo_4.3" vType="paperVehicle" speedFactor="1.01" vaporized=""/>
    <tripinfo id="5.3" depart="150.00" departLane="W2B1_0" departPos="5.10" departSpeed="0.00" departDelay="0.00" arrival="439.00" arrivalLane="B3E2_0" arrivalPos="496.00" arrivalSpeed="9.92" duration="289.00" routeLength="1994.90" waitingTime="60.00" waitingCount="3" stopTime="0.00" timeLoss="89.31" rerouteNo="0" devices="tripinfo_5.3" vType="paperVehicle" speedFactor="1.00" vaporized=""/>
    <tripinfo id="5.4" depart="160.00" departLane="W2B1_0" departPos="5.10" departSpeed="0.00" departDelay="0.00" arrival="442.00" arrivalLane="B3E2_0" arrivalPos="496.00" arrivalSpeed="9.16" duration="282.00" routeLength="1994.90" waitingTime="50.00" waitingCount="3" stopTime="0.00" timeLoss="81.74" rerouteNo="0" devices="tripinfo_5.4" vType="paperVehicle" speedFactor="1.12" vaporized=""/>
    <tripinfo id="5.5" depart="170.00" departLane="W2B1_0" departPos="5.10" departSpeed="0.00" departDelay="0.00" arrival="444.00" arrivalLane="B3E2_0" arrivalPos="496.00" arrivalSpeed="8.92" duration="274.00" routeLength="1994.90" waitingTime="38.00" waitingCount="3" stopTime="0.00" timeLoss="74.04" rerouteNo="0" devices="tripinfo_5.5" vType="paperVehicle" speedFactor="0.91" vaporized=""/>
    <tripinfo id="5.6" depart="176.00" departLane="W2B1_0" departPos="5.10" departSpeed="0.00" departDelay="0.00" arrival="446.00" arrivalLane="B3E2_0" arrivalPos="496.00" arrivalSpeed="9.49" duration="270.00" routeLength="1994.90" waitingTime="34.00" waitingCount="3" stopTime="0.00" timeLoss="70.47" rerouteNo="0" devices="tripinfo_5.6" vType="paperVehicle" speedFactor="1.02" vaporized=""/>
    <tripinfo id="6.27" depart="135.00" departLane="N1A1_0" departPos="5.10" departSpeed="0.00" departDelay="0.00" arrival="449.00" arrivalLane="B3E2_0" arrivalPos="496.00" arrivalSpeed="9.60" duration="314.00" routeLength="2495.93" waitingTime="26.00" waitingCount="3" stopTime="0.00" timeLoss="62.68" rerouteNo="0" devices="tripinfo_6.27" vType="paperVehicle" speedFactor="0.85" vaporized=""/>
    <tripinfo id="6.28" depart="138.00" departLane="N1A1_0" departPos="5.10" departSpeed="0.00" departDelay="1.00" arrival="451.00" arrivalLane="B3E2_0" arrivalPos="496.00" arrivalSpeed="8.82" duration="313.00" routeLength="2495.93" waitingTime="22.00" waitingCount="3" stopTime="0.00" timeLoss="62.68" rerouteNo="0" devices="tripinfo_6.28" vType="paperVehicle" speedFactor="1.17" vaporized=""/>
    <tripinfo id="6.29" depart="141.00" departLane="N1A1_0" departPos="5.10" departSpeed="0.00" departDelay="3.00" arrival="453.00" arrivalLane="B3E2_0" arrivalPos="496.00" arrivalSpeed="8.74" duration="312.00" routeLength="2495.93" waitingTime="19.00" waitingCount="3" stopTime="0.00" timeLoss="61.48" rerouteNo="0" devices="tripinfo_6.29" vType="paperVehicle" speedFactor="1.02" vaporized=""/>
    <tripinfo id="6.30" depart="144.00" departLane="N1A1_0" departPos="5.10" departSpeed="0.00" departDelay="5.00" arrival="455.00" arrivalLane="B3E2_0" arrivalPos="496.00" arrivalSpeed="9.17" duration="311.00" routeLength="2495.93" waitingTime="15.00" waitingCount="2" stopTime="0.00" timeLoss="60.85" rerouteNo="0" devices="tripinfo_6.30" vType="paperVehicle" speedFactor="1.10" vaporized=""/>