<?xml version="1.0" encoding="UTF-8"?>

<!-- generated on 2022-01-25 13:46:31 by Eclipse SUMO sumo Version 1.10.0
<configuration xmlns:xsi="http://www.w3.org/2001/XMLSchema-instance" xsi:noNamespaceSchemaLocation="http://sumo.dlr.de/xsd/sumoConfiguration.xsd">

    <input>
        <net-file value="C:\Users\Marcus\Desktop\Hauptordner\Studium\Masterstudium\3.%20Semester\Projekt_Sim-Opt\Traffic_Simulation\GridNetwork\2x3net.net.xml"/>
        <route-files value="C:\Users\Marcus\Desktop\Hauptordner\Studium\Masterstudium\3.%20Semester\Projekt_Sim-Opt\Traffic_Simulation\GridNetwork\2x3Routes.xml"/>
        <additional-files value="C:\Users\Marcus\Desktop\Hauptordner\Studium\Masterstudium\3.%20Semester\Projekt_Sim-Opt\Traffic_Simulation\GridNetwork\additionals.xml"/>
    </input>

    <output>
        <tripinfo-output value="../tripinfo.xml"/>
        <statistic-output value="../statistics.xml"/>
    </output>

    <report>
        <no-step-log value="true"/>
    </report>

    <traci_server>
        <remote-port value="52386"/>
    </traci_server>

</configuration>
-->

<tripinfos xmlns:xsi="http://www.w3.org/2001/XMLSchema-instance" xsi:noNamespaceSchemaLocation="http://sumo.dlr.de/xsd/tripinfo_file.xsd">
    <tripinfo id="1.0" depart="11.00" departLane="N1A1_0" departPos="5.10" departSpeed="0.00" departDelay="0.00" arrival="188.00" arrivalLane="B1S1_0" arrivalPos="492.80" arrivalSpeed="8.93" duration="177.00" routeLength="1494.90" waitingTime="1.00" waitingCount="1" stopTime="0.00" timeLoss="26.84" rerouteNo="0" devices="tripinfo_1.0" vType="paperVehicle" speedFactor="1.03" vaporized=""/>
    <tripinfo id="2.0" depart="11.00" departLane="N2A2_0" departPos="5.10" departSpeed="0.00" departDelay="0.00" arrival="196.00" arrivalLane="B2S2_0" arrivalPos="492.80" arrivalSpeed="9.18" duration="185.00" routeLength="1494.90" waitingTime="14.00" waitingCount="2" stopTime="0.00" timeLoss="34.67" rerouteNo="0" devices="tripinfo_2.0" vType="paperVehicle" speedFactor="0.83" vaporized=""/>
    <tripinfo id="1.1" depart="27.00" departLane="N1A1_0" departPos="5.10" departSpeed="0.00" departDelay="2.00" arrival="196.00" arrivalLane="B1S1_0" arrivalPos="492.80" arrivalSpeed="9.35" duration="169.00" routeLength="1494.90" waitingTime="0.00" waitingCount="0" stopTime="0.00" timeLoss="19.00" rerouteNo="0" devices="tripinfo_1.1" vType="paperVehicle" speedFactor="0.94" vaporized=""/>
    <tripinfo id="1.2" depart="55.00" departLane="N1A1_0" departPos="5.10" departSpeed="0.00" departDelay="0.00" arrival="218.00" arrivalLane="B1S1_0" arrivalPos="492.80" arrivalSpeed="9.97" duration="163.00" routeLength="1494.90" waitingTime="0.00" waitingCount="0" stopTime="0.00" timeLoss="13.07" rerouteNo="0" devices="tripinfo_1.2" vType="paperVehicle" speedFactor="1.12" vaporized=""/>
    <tripinfo id="4.0" depart="3.00" departLane="W1A1_0" departPos="5.10" departSpeed="0.00" departDelay="0.00" arrival="225.00" arrivalLane="A3E1_0" arrivalPos="496.00" arrivalSpeed="9.84" duration="222.00" routeLength="1994.90" waitingTime="5.00" waitingCount="1" stopTime="0.00" timeLoss="22.45" rerouteNo="0" devices="tripinfo_4.0" vType="paperVehicle" speedFactor="0.94" vaporized=""/>
    <tripinfo id="1.3" depart="113.00" departLane="N1A1_0" departPos="5.10" departSpeed="0.00" departDelay="0.00" arrival="280.00" arrivalLane="B1S1_0" arrivalPos="492.80" arrivalSpeed="9.06" duration="167.00" routeLength="1494.90" waitingTime="0.00" waitingCount="0" stopTime="0.00" timeLoss="16.70" rerouteNo="0" devices="tripinfo_1.3" vType="paperVehicle" speedFactor="0.87" vaporized=""/>
    <tripinfo id="5.0" depart="63.00" departLane="W2B1_0" departPos="5.10" departSpeed="0.00" departDelay="0.00" arrival="287.00" arrivalLane="B3E2_0" arrivalPos="496.00" arrivalSpeed="9.21" duration="224.00" routeLength="1994.90" waitingTime="2.00" waitingCount="1" stopTime="0.00" timeLoss="24.04" rerouteNo="0" devices="tripinfo_5.0" vType="paperVehicle" speedFactor="0.88" vaporized=""/>
    <tripinfo id="6.0" depart="1.00" departLane="N1A1_0" departPos="5.10" departSpeed="0.00" departDelay="0.00" arrival="289.00" arrivalLane="B3E2_0" arrivalPos="496.00" arrivalSpeed="8.96" duration="288.00" routeLength="2495.93" waitingTime="10.00" waitingCount="2" stopTime="0.00" timeLoss="37.93" rerouteNo="0" devices="tripinfo_6.0" vType="paperVehicle" speedFactor="1.06" vaporized=""/>
    <tripinfo id="6.1" depart="4.00" departLane="N1A1_0" departPos="5.10" departSpeed="0.00" departDelay="1.00" arrival="291.00" arrivalLane="B3E2_0" arrivalPos="496.00" arrivalSpeed="9.03" duration="287.00" routeLength="2495.93" waitingTime="7.00" waitingCount="2" stopTime="0.00" timeLoss="36.76" rerouteNo="0" devices="tripinfo_6.1" vType="paperVehicle" speedFactor="1.01" vaporized=""/>
    <tripinfo id="6.2" depart="7.00" departLane="N1A1_0" departPos="5.10" departSpeed="0.00" departDelay="3.00" arrival="294.00" arrivalLane="B3E2_0" arrivalPos="496.00" arrivalSpeed="9.32" duration="287.00" routeLength="2495.93" waitingTime="5.00" waitingCount="2" stopTime="0.00" timeLoss="36.33" rerouteNo="0" devices="tripinfo_6.2" vType="paperVehicle" speedFactor="1.08" vaporized=""/>
    <tripinfo id="6.3" depart="21.00" departLane="N1A1_0" departPos="5.10" departSpeed="0.00" departDelay="0.00" arrival="297.00" arrivalLane="B3E2_0" arrivalPos="496.00" arrivalSpeed="9.98" duration="276.00" routeLength="2495.93" waitingTime="0.00" waitingCount="0" stopTime="0.00" timeLoss="25.63" rerouteNo="0" devices="tripinfo_6.3" vType="paperVehicle" speedFactor="1.05" vaporized=""/>
    <tripinfo id="1.4" depart="136.00" departLane="N1A1_0" departPos="5.10" departSpeed="0.00" departDelay="0.00" arrival="298.00" arrivalLane="B1S1_0" arrivalPos="492.80" arrivalSpeed="9.17" duration="162.00" routeLength="1494.90" waitingTime="0.00" waitingCount="0" stopTime="0.00" timeLoss="11.70" rerouteNo="0" devices="tripinfo_1.4" vType="paperVehicle" speedFactor="1.01" vaporized=""/>
    <tripinfo id="6.4" depart="24.00" departLane="N1A1_0" departPos="5.10" departSpeed="0.00" departDelay="2.00" arrival="301.00" arrivalLane="B3E2_0" arrivalPos="496.00" arrivalSpeed="9.69" duration="277.00" routeLength="2495.93" waitingTime="0.00" waitingCount="0" stopTime="0.00" timeLoss="25.82" rerouteNo="0" devices="tripinfo_6.4" vType="paperVehicle" speedFactor="0.89" vaporized=""/>
    <tripinfo id="6.5" depart="30.00" departLane="N1A1_0" departPos="5.10" departSpeed="0.00" departDelay="2.00" arrival="307.00" arrivalLane="B3E2_0" arrivalPos="496.00" arrivalSpeed="8.73" duration="277.00" routeLength="2495.93" waitingTime="0.00" waitingCount="0" stopTime="0.00" timeLoss="26.10" rerouteNo="0" devices="tripinfo_6.5" vType="paperVehicle" speedFactor="0.86" vaporized=""/>
    <tripinfo id="6.6" depart="33.00" departLane="N1A1_0" departPos="5.10" departSpeed="0.00" departDelay="0.00" arrival="309.00" arrivalLane="B3E2_0" arrivalPos="496.00" arrivalSpeed="9.27" duration="276.00" routeLength="2495.93" waitingTime="0.00" waitingCount="0" stopTime="0.00" timeLoss="26.09" rerouteNo="0" devices="tripinfo_6.6" vType="paperVehicle" speedFactor="1.09" vaporized=""/>
    <tripinfo id="6.7" depart="36.00" departLane="N1A1_0" departPos="5.10" departSpeed="0.00" departDelay="2.00" arrival="326.00" arrivalLane="B3E2_0" arrivalPos="496.00" arrivalSpeed="8.76" duration="290.00" routeLength="2495.93" waitingTime="10.00" waitingCount="1" stopTime="0.00" timeLoss="39.80" rerouteNo="0" devices="tripinfo_6.7" vType="paperVehicle" speedFactor="1.03" vaporized=""/>
    <tripinfo id="6.8" depart="48.00" departLane="N1A1_0" departPos="5.10" departSpeed="0.00" departDelay="0.00" arrival="329.00" arrivalLane="B3E2_0" arrivalPos="496.00" arrivalSpeed="9.55" duration="281.00" routeLength="2495.93" waitingTime="5.00" waitingCount="1" stopTime="0.00" timeLoss="30.47" rerouteNo="0" devices="tripinfo_6.8" vType="paperVehicle" speedFactor="1.05" vaporized=""/>
    <tripinfo id="1.5" depart="155.00" departLane="N1A1_0" departPos="5.10" departSpeed="0.00" departDelay="0.00" arrival="329.00" arrivalLane="B1S1_0" arrivalPos="492.80" arrivalSpeed="9.84" duration="174.00" routeLength="1494.90" waitingTime="4.00" waitingCount="1" stopTime="0.00" timeLoss="23.97" rerouteNo="0" devices="tripinfo_1.5" vType="paperVehicle" speedFactor="0.96" vaporized=""/>
    <tripinfo id="4.1" depart="86.00" departLane="W1A1_0" departPos="5.10" departSpeed="0.00" departDelay="0.00" arrival="332.00" arrivalLane="A3E1_0" arrivalPos="496.00" arrivalSpeed="8.73" duration="246.00" routeLength="1994.90" waitingTime="18.00" waitingCount="3" stopTime="0.00" timeLoss="45.97" rerouteNo="0" devices="tripinfo_4.1" vType="paperVehicle" speedFactor="0.98" vaporized=""/>
    <tripinfo id="4.2" depart="95.00" departLane="W1A1_0" departPos="5.10" departSpeed="0.00" departDelay="0.00" arrival="334.00" arrivalLane="A3E1_0" arrivalPos="496.00" arrivalSpeed="9.07" duration="239.00" routeLength="1994.90" waitingTime="8.00" waitingCount="2" stopTime="0.00" timeLoss="39.13" rerouteNo="0" devices="tripinfo_4.2" vType="paperVehicle" speedFactor="0.89" vaporized=""/>
    <tripinfo id="3.0" depart="128.00" departLane="N3A3_0" departPos="5.10" departSpeed="0.00" departDelay="0.00" arrival="346.00" arrivalLane="B3S3_0" arrivalPos="492.80" arrivalSpeed="9.05" duration="218.00" routeLength="1494.90" waitingTime="52.00" waitingCount="1" stopTime="0.00" timeLoss="68.18" rerouteNo="0" devices="tripinfo_3.0" vType="paperVehicle" speedFactor="0.93" vaporized=""/>
    <tripinfo id="3.1" depart="183.00" departLane="N3A3_0" departPos="5.10" departSpeed="0.00" departDelay="0.00" arrival="349.00" arrivalLane="B3S3_0" arrivalPos="492.80" arrivalSpeed="8.73" duration="166.00" routeLength="1494.90" waitingTime="0.00" waitingCount="0" stopTime="0.00" timeLoss="16.02" rerouteNo="0" devices="tripinfo_3.1" vType="paperVehicle" speedFactor="0.85" vaporized=""/>
    <tripinfo id="2.1" depart="154.00" departLane="N2A2_0" departPos="5.10" departSpeed="0.00" departDelay="0.00" arrival="352.00" arrivalLane="B2S2_0" arrivalPos="492.80" arrivalSpeed="9.92" duration="198.00" routeLength="1494.90" waitingTime="28.00" waitingCount="2" stopTime="0.00" timeLoss="48.07" rerouteNo="0" devices="tripinfo_2.1" vType="paperVehicle" speedFactor="1.03" vaporized=""/>
    <tripinfo id="6.9" depart="58.00" departLane="N1A1_0" departPos="5.10" departSpeed="0.00" departDelay="1.00" arrival="357.00" arrivalLane="B3E2_0" arrivalPos="496.00" arrivalSpeed="9.39" duration="299.00" routeLength="2495.93" waitingTime="17.00" waitingCount="2" stopTime="0.00" timeLoss="48.39" rerouteNo="0" devices="tripinfo_6.9" vType="paperVehicle" speedFactor="0.99" vaporized=""/>
    <tripinfo id="6.10" depart="61.00" departLane="N1A1_0" departPos="5.10" departSpeed="0.00" departDelay="1.00" arrival="359.00" arrivalLane="B3E2_0" arrivalPos="496.00" arrivalSpeed="9.09" duration="298.00" routeLength="2495.93" waitingTime="16.00" waitingCount="2" stopTime="0.00" timeLoss="47.51" rerouteNo="0" devices="tripinfo_6.10" vType="paperVehicle" speedFactor="0.93" vaporized=""/>
    <tripinfo id="6.11" depart="64.00" departLane="N1A1_0" departPos="5.10" departSpeed="0.00" departDelay="0.00" arrival="361.00" arrivalLane="B3E2_0" arrivalPos="496.00" arrivalSpeed="9.94" duration="297.00" routeLength="2495.93" waitingTime="15.00" waitingCount="2" stopTime="0.00" timeLoss="46.86" rerouteNo="0" devices="tripinfo_6.11" vType="paperVehicle" speedFactor="0.94" vaporized=""/>
    <tripinfo id="6.12" depart="67.00" departLane="N1A1_0" departPos="5.10" departSpeed="0.00" departDelay="1.00" arrival="363.00" arrivalLane="B3E2_0" arrivalPos="496.00" arrivalSpeed="9.45" duration="296.00" routeLength="2495.93" waitingTime="15.00" waitingCount="2" stopTime="0.00" timeLoss="45.58" rerouteNo="0" devices="tripinfo_6.12" vType="paperVehicle" speedFactor="0.94" vaporized=""/>
    <tripinfo id="5.1" depart="119.00" departLane="W2B1_0" departPos="5.10" departSpeed="0.00" departDelay="0.00" arrival="366.00" arrivalLane="B3E2_0" arrivalPos="496.00" arrivalSpeed="8.95" duration="247.00" routeLength="1994.90" waitingTime="14.00" waitingCount="3" stopTime="0.00" timeLoss="46.78" rerouteNo="0" devices="tripinfo_5.1" vType="paperVehicle" speedFactor="0.95" vaporized=""/>
    <tripinfo id="1.6" depart="204.00" departLane="N1A1_0" departPos="5.10" departSpeed="0.00" departDelay="0.00" arrival="366.00" arrivalLane="B1S1_0" arrivalPos="492.80" arrivalSpeed="9.03" duration="162.00" routeLength="1494.90" waitingTime="0.00" waitingCount="0" stopTime="0.00" timeLoss="12.25" rerouteNo="0" devices="tripinfo_1.6" vType="paperVehicle" speedFactor="0.90" vaporized=""/>
    <tripinfo id="6.13" depart="71.00" departLane="N1A1_0" departPos="5.10" departSpeed="0.00" departDelay="0.00" arrival="368.00" arrivalLane="B3E2_0" arrivalPos="496.00" arrivalSpeed="9.17" duration="297.00" routeLength="2495.93" waitingTime="15.00" waitingCount="2" stopTime="0.00" timeLoss="46.47" rerouteNo="0" devices="tripinfo_6.13" vType="paperVehicle" speedFactor="1.16" vaporized=""/>
    <tripinfo id="6.14" depart="74.00" departLane="N1A1_0" departPos="5.10" departSpeed="0.00" departDelay="2.00" arrival="370.00" arrivalLane="B3E2_0" arrivalPos="496.00" arrivalSpeed="9.96" duration="296.00" routeLength="2495.93" waitingTime="13.00" waitingCount="2" stopTime="0.00" timeLoss="44.93" rerouteNo="0" devices="tripinfo_6.14" vType="paperVehicle" speedFactor="1.02" vaporized=""/>
    <tripinfo id="6.15" depart="77.00" departLane="N1A1_0" departPos="5.10" departSpeed="0.00" departDelay="2.00" arrival="372.00" arrivalLane="B3E2_0" arrivalPos="496.00" arrivalSpeed="9.16" duration="295.00" routeLength="2495.93" waitingTime="11.00" waitingCount="1" stopTime="0.00" timeLoss="44.65" rerouteNo="0" devices="tripinfo_6.15" vType="paperVehicle" speedFactor="1.01" vaporized=""/>
    <tripinfo id="6.16" depart="96.00" departLane="N1A1_0" departPos="5.10" departSpeed="0.00" departDelay="0.00" arrival="385.00" arrivalLane="B3E2_0" arrivalPos="496.00" arrivalSpeed="9.82" duration="289.00" routeLength="2495.93" waitingTime="13.00" waitingCount="1" stopTime="0.00" timeLoss="38.47" rerouteNo="0" devices="tripinfo_6.16" vType="paperVehicle" speedFactor="0.83" vaporized=""/>
    <tripinfo id="6.17" depart="116.00" departLane="N1A1_0" departPos="5.10" departSpeed="0.00" departDelay="3.00" arrival="390.00" arrivalLane="B3E2_0" arrivalPos="496.00" arrivalSpeed="9.16" duration="274.00" routeLength="2495.93" waitingTime="0.00" waitingCount="0" stopTime="0.00" timeLoss="23.49" rerouteNo="0" devices="tripinfo_6.17" vType="paperVehicle" speedFactor="0.92" vaporized=""/>
    <tripinfo id="1.7" depart="221.00" departLane="N1A1_0" departPos="5.10" departSpeed="0.00" departDelay="1.00" arrival="391.00" arrivalLane="B1S1_0" arrivalPos="492.80" arrivalSpeed="9.84" duration="170.00" routeLength="1494.90" waitingTime="2.00" waitingCount="1" stopTime="0.00" timeLoss="19.92" rerouteNo="0" devices="tripinfo_1.7" vType="paperVehicle" speedFactor="1.02" vaporized=""/>
    <tripinfo id="6.18" depart="120.00" departLane="N1A1_0" departPos="5.10" departSpeed="0.00" departDelay="0.00" arrival="394.00" arrivalLane="B3E2_0" arrivalPos="496.00" arrivalSpeed="9.41" duration="274.00" routeLength="2495.93" waitingTime="0.00" waitingCount="0" stopTime="0.00" timeLoss="24.00" rerouteNo="0" devices="tripinfo_6.18" vType="paperVehicle" speedFactor="1.13" vaporized=""/>
    <tripinfo id="1.8" depart="224.00" departLane="N1A1_0" departPos="5.10" departSpeed="0.00" departDelay="1.00" arrival="394.00" arrivalLane="B1S1_0" arrivalPos="492.80" arrivalSpeed="9.47" duration="170.00" routeLength="1494.90" waitingTime="1.00" waitingCount="1" stopTime="0.00" timeLoss="20.15" rerouteNo="0" devices="tripinfo_1.8" vType="paperVehicle" speedFactor="0.99" vaporized=""/>
    <tripinfo id="2.2" depart="209.00" departLane="N2A2_0" departPos="5.10" departSpeed="0.00" departDelay="0.00" arrival="408.00" arrivalLane="B2S2_0" arrivalPos="492.80" arrivalSpeed="8.80" duration="199.00" routeLength="1494.90" waitingTime="32.00" waitingCount="1" stopTime="0.00" timeLoss="49.38" rerouteNo="0" devices="tripinfo_2.2" vType="paperVehicle" speedFactor="1.02" vaporized=""/>
    <tripinfo id="2.3" depart="212.00" departLane="N2A2_0" departPos="5.10" departSpeed="0.00" departDelay="1.00" arrival="411.00" arrivalLane="B2S2_0" arrivalPos="492.80" arrivalSpeed="9.72" duration="199.00" routeLength="1494.90" waitingTime="27.00" waitingCount="2" stopTime="0.00" timeLoss="48.89" rerouteNo="0" devices="tripinfo_2.3" vType="paperVehicle" speedFactor="0.97" vaporized=""/>
    <tripinfo id="4.3" depart="128.00" departLane="W1A1_0" departPos="5.10" departSpeed="0.00" departDelay="0.00" arrival="412.00" arrivalLane="A3E1_0" arrivalPos="496.00" arrivalSpeed="9.31" duration="284.00" routeLength="1994.90" waitingTime="54.00" waitingCount="3" stopTime="0.00" timeLoss="83.99" rerouteNo="0" devices="tripinfo_4.3" vType="paperVehicle" speedFactor="1.18" vaporized=""/>
    <tripinfo id="4.4" depart="145.00" departLane="W1A1_0" departPos="5.10" departSpeed="0.00" departDelay="0.00" arrival="414.00" arrivalLane="A3E1_0" arrivalPos="496.00" arrivalSpeed="9.21" duration="269.00" routeLength="1994.90" waitingTime="37.00" waitingCount="3" stopTime="0.00" timeLoss="69.31" rerouteNo="0" devices="tripinfo_4.4" vType="paperVehicle" speedFactor="1.18" vaporized=""/>
    <tripinfo id="3.2" depart="206.00" departLane="N3A3_0" departPos="5.10" departSpeed="0.00" departDelay="0.00" arrival="416.00" arrivalLane="B3S3_0" arrivalPos="492.80" arrivalSpeed="8.92" duration="210.00" routeLength="1494.90" waitingTime="40.00" waitingCount="2" stopTime="0.00" timeLoss="60.48" rerouteNo="0" devices="tripinfo_3.2" vType="paperVehicle" speedFactor="1.14" vaporized=""/>
    <tripinfo id="6.19" depart="131.00" departLane="N1A1_0" departPos="5.10" departSpeed="0.00" departDelay="0.00" arrival="427.00" arrivalLane="B3E2_0" arrivalPos="496.00" arrivalSpeed="9.51" duration="296.00" routeLength="2495.93" waitingTime="18.00" waitingCount="2" stopTime="0.00" timeLoss="45.77" rerouteNo="0" devices="tripinfo_6.19" vType="paperVehicle" speedFactor="1.15" vaporized=""/>
    <tripinfo id="6.20" depart="139.00" departLane="N1A1_0" departPos="5.10" departSpeed="0.00" departDelay="3.00" arrival="429.00" arrivalLane="B3E2_0" arrivalPos="496.00" arrivalSpeed="9.64" duration="290.00" routeLength="2495.93" waitingTime="13.00" waitingCount="2" stopTime="0.00" timeLoss="39.85" rerouteNo="0" devices="tripinfo_6.20" vType="paperVehicle" speedFactor="1.17" vaporized=""/>
    <tripinfo id="1.9" depart="267.00" departLane="N1A1_0" departPos="5.10" departSpeed="0.00" departDelay="0.00" arrival="430.00" arrivalLane="B1S1_0" arrivalPos="492.80" arrivalSpeed="9.32" duration="163.00" routeLength="1494.90" waitingTime="0.00" waitingCount="0" stopTime="0.00" timeLoss="12.87" rerouteNo="0" devices="tripinfo_1.9" vType="paperVehicle" speedFactor="1.06" vaporized=""/>
    <tripinfo id="5.2" depart="145.00" departLane="W2B1_0" departPos="5.10" departSpeed="0.00" departDelay="0.00" arrival="431.00" arrivalLane="B3E2_0" arrivalPos="496.00" arrivalSpeed="9.88" duration="286.00" routeLength="1994.90" waitingTime="57.00" waitingCount="2" stopTime="0.00" timeLoss="86.24" rerouteNo="0" devices="tripinfo_5.2" vType="paperVehicle" speedFactor="1.10" vaporized=""/>
    <tripinfo id="6.21" depart="142.00" departLane="N1A1_0" departPos="5.10" departSpeed="0.00" departDelay="5.00" arrival="433.00" arrivalLane="B3E2_0" arrivalPos="496.00" arrivalSpeed="9.96" duration="291.00" routeLength="2495.93" waitingTime="11.00" waitingCount="2" stopTime="0.00" timeLoss="40.77" rerouteNo="0" devices="tripinfo_6.21" vType="paperVehicle" speedFactor="0.99" vaporized=""/>
    <tripinfo id="6.22" depart="145.00" departLane="N1A1_0" departPos="5.10" departSpeed="0.00" departDelay="5.00" arrival="435.00" arrivalLane="B3E2_0" arrivalPos="496.00" arrivalSpeed="9.87" duration="290.00" routeLength="2495.93" waitingTime="8.00" waitingCount="1" stopTime="0.00" timeLoss="39.64" rerouteNo="0" devices="tripinfo_6.22" vType="paperVehicle" speedFactor="1.02" vaporized=""/>
    <tripinfo id="6.23" depart="149.00" departLane="N1A1_0" departPos="5.10" departSpeed="0.00" departDelay="6.00" arrival="438.00" arrivalLane="B3E2_0" arrivalPos="496.00" arrivalSpeed="9.37" duration="289.00" routeLength="2495.93" waitingTime="8.00" waitingCount="1" stopTime="0.00" timeLoss="38.15" rerouteNo="0" devices="tripinfo_6.23" vType="paperVehicle" speedFactor="0.97" vaporized=""/>
    <tripinfo id="6.24" depart="152.00" departLane="N1A1_0" departPos="5.10" departSpeed="0.00" departDelay="4.00" arrival="440.00" arrivalLane="B3E2_0" arrivalPos="496.00" arrivalSpeed="9.65" duration="288.00" routeLength="2495.93" waitingTime="5.00" waitingCount="1" stopTime="0.00" timeLoss="36.78" rerouteNo="0" devices="tripinfo_6.24" vType="paperVehicle" speedFactor="0.90" vaporized=""/>
    <tripinfo id="6.25" depart="158.00" departLane="N1A1_0" departPos="5.10" departSpeed="0.00" departDelay="3.00" arrival="442.00" arrivalLane="B3E2_0" arrivalPos="496.00" arrivalSpeed="9.30" duration="284.00" routeLength="2495.93" waitingTime="3.00" waitingCount="1" stopTime="0.00" timeLoss="33.54" rerouteNo="0" devices="tripinfo_6.25" vType="paperVehicle" speedFactor="1.09" vaporized=""/>
    <tripinfo id="6.26" depart="161.00" departLane="N1A1_0" departPos="5.10" departSpeed="0.00" departDelay="4.00" arrival="444.00" arrivalLane="B3E2_0" arrivalPos="496.00" arrivalSpeed="8.94" duration="283.00" routeLength="2495.93" waitingTime="3.00" waitingCount="1" stopTime="0.00" timeLoss="32.41" rerouteNo="0" devices="tripinfo_6.26" vType="paperVehicle" speedFactor="1.04" vaporized=""/>
    <tripinfo id="6.27" depart="164.00" departLane="N1A1_0" departPos="5.10" departSpeed="0.00" departDelay="1.00" arrival="446.00" arrivalLane="B3E2_0" arrivalPos="496.00" arrivalSpeed="9.70" duration="282.00" routeLength="2495.93" waitingTime="2.00" waitingCount="1" stopTime="0.00" timeLoss="31.86" rerouteNo="0" devices="tripinfo_6.27" vType="paperVehicle" speedFactor="1.09" vaporized=""/>
    <tripinfo id="6.28" depart="167.00" departLane="N1A1_0" departPos="5.10" departSpeed="0.00" departDelay="0.00" arrival="454.00" arrivalLane="B3E2_0" arrivalPos="496.00" arrivalSpeed="9.50" duration="287.00" routeLength="2495.93" waitingTime="12.00" waitingCount="1" stopTime="0.00" timeLoss="36.64" rerouteNo="0" devices="tripinfo_6.28" vType="paperVehicle" speedFactor="1.00" vaporized=""/>
    <tripinfo id="1.10" depart="273.00" departLane="N1A1_0" departPos="5.10" departSpeed="0.00" departDelay="5.00" arrival="460.00" arrivalLane="B1S1_0" arrivalPos="492.80" arrivalSpeed="9.53" duration="187.00" routeLength="1494.90" waitingTime="15.00" waitingCount="2" stopTime="0.00" timeLoss="36.98" rerouteNo="0" devices="tripinfo_1.10" vType="paperVehicle" speedFactor="0.98" vaporized=""/>
    <tripinfo id="6.29" depart="174.00" departLane="N1A1_0" departPos="5.10" departSpeed="0.00" departDelay="0.00" arrival="472.00" arrivalLane="B3E2_0" arrivalPos="496.00" arrivalSpeed="8.75" duration="298.00" routeLength="2495.93" waitingTime="17.00" waitingCount="2" stopTime="0.00" timeLoss="47.28" rerouteNo="0" devices="tripinfo_6.29" vType="paperVehicle" speedFactor="0.90" vaporized=""/>
    <tripinfo id="6.30" depart="180.00" departLane="N1A1_0" departPos="5.10" departSpeed="0.00" departDelay="0.00" arrival="474.00" arrivalLane="B3E2_0" arrivalPos="496.00" arrivalSpeed="9.84" duration="294.00" routeLength="2495.93" waitingTime="14.00" waitingCount="2" stopTime="0.00" timeLoss="43.97" rerouteNo="0" devices="tripinfo_6.30" vType="paperVehicle" speedFactor="0.88" vaporized=""/>
    <tripinfo id="6.31" depart="190.00" departLane="N1A1_0" departPos="5.10" departSpeed="0.00" departDelay="0.00" arrival="477.00" arrivalLane="B3E2_0" arrivalPos="496.00" arrivalSpeed="9.90" duration="287.00" routeLength="2495.93" waitingTime="9.00" waitingCount="1" stopTime="0.00" timeLoss="36.36" rerouteNo="0" devices="tripinfo_6.31" vType="paperVehicle" speedFactor="0.85" vaporized=""/>
    <tripinfo id="2.4" depart="215.00" departLane="N2A2_0" departPos="5.10" departSpeed="0.00" departDelay="3.00" arrival="478.00" arrivalLane="B2S2_0" arrivalPos="492.80" arrivalSpeed="9.49" duration="263.00" routeLength="1494.90" waitingTime="86.00" waitingCount="3" stopTime="0.00" timeLoss="113.37" rerouteNo="0" devices="tripinfo_2.4" vType="paperVehicle" speedFactor="1.08" vaporized=""/>
    <tripinfo id="6.32" depart="194.00" departLane="N1A1_0" departPos="5.10" departSpeed="0.00" departDelay="0.00" arrival="480.00" arrivalLane="B3E2_0" arrivalPos="496.00" arrivalSpeed="9.92" duration="286.00" routeLength="2495.93" waitingTime="8.00" waitingCount="1" stopTime="0.00" timeLoss="35.26" rerouteNo="0" devices="tripinfo_6.32" vType="paperVehicle" speedFactor="1.17" vaporized=""/>
    <tripinfo id="2.5" depart="272.00" departLane="N2A2_0" departPos="5.10" departSpeed="0.00" departDelay="0.00" arrival="481.00" arrivalLane="B2S2_0" arrivalPos="492.80" arrivalSpeed="9.83" duration="209.00" routeLength="1494.90" waitingTime="39.00" waitingCount="2" stopTime="0.00" timeLoss="58.61" rerouteNo="0" devices="tripinfo_2.5" vType="paperVehicle" speedFactor="1.03" vaporized=""/>
    <tripinfo id="3.3" depart="273.00" departLane="N3A3_0" departPos="5.10" departSpeed="0.00" departDelay="0.00" arrival="486.00" arrivalLane="B3S3_0" arrivalPos="492.80" arrivalSpeed="9.57" duration="213.00" routeLength="1494.90" waitingTime="47.00" waitingCount="1" stopTime="0.00" timeLoss="63.08" rerouteNo="0" devices="tripinfo_3.3" vType="paperVehicle" speedFactor="1.01" vaporized=""/>
    <tripinfo id="3.4" depart="315.00" departLane="N3A3_0" departPos="5.10" departSpeed="0.00" departDelay="0.00" arrival="488.00" arrivalLane="B3S3_0" arrivalPos="492.80" arrivalSpeed="9.07" duration="173.00" routeLength="1494.90" waitingTime="6.00" waitingCount="1" stopTime="0.00" timeLoss="23.49" rerouteNo="0" devices="tripinfo_3.4" vType="paperVehicle" speedFactor="0.97" vaporized=""/>
    <tripinfo id="6.33" depart="197.00" departLane="N1A1_0" departPos="5.10" departSpeed="0.00" departDelay="1.00" arrival="503.00" arrivalLane="B3E2_0" arrivalPos="496.00" arrivalSpeed="9.35" duration="306.00" routeLength="2495.93" waitingTime="26.00" waitingCount="2" stopTime="0.00" timeLoss="55.35" rerouteNo="0" devices="tripinfo_6.33" vType="paperVehicle" speedFactor="1.02" vaporized=""/>
    <tripinfo id="6.34" depart="201.00" departLane="N1A1_0" departPos="5.10" departSpeed="0.00" departDelay="0.00" arrival="505.00" arrivalLane="B3E2_0" arrivalPos="496.00" arrivalSpeed="9.98" duration="304.00" routeLength="2495.93" waitingTime="22.00" waitingCount="2" stopTime="0.00" timeLoss="53.73" rerouteNo="0" devices="tripinfo_6.34" vType="paperVehicle" speedFactor="1.00" vaporized=""/>
    <tripinfo id="6.35" depart="218.00" departLane="N1A1_0" departPos="5.10" departSpeed="0.00" departDelay="0.00" arrival="507.00" arrivalLane="B3E2_0" arrivalPos="496.00" arrivalSpeed="8.91" duration="289.00" routeLength="2495.93" waitingTime="9.00" waitingCount="2" stopTime="0.00" timeLoss="39.04" rerouteNo="0" devices="tripinfo_6.35" vType="paperVehicle" speedFactor="1.12" vaporized=""/>
    <tripinfo id="6.36" depart="227.00" departLane="N1A1_0" departPos="5.10" departSpeed="0.00" departDelay="1.00" arrival="510.00" arrivalLane="B3E2_0" arrivalPos="496.00" arrivalSpeed="9.28" duration="283.00" routeLength="2495.93" waitingTime="0.00" waitingCount="0" stopTime="0.00" timeLoss="32.37" rerouteNo="0" devices="tripinfo_6.36" vType="paperVehicle" speedFactor="0.94" vaporized=""/>
    <tripinfo id="6.37" depart="232.00" departLane="N1A1_0" departPos="5.10" departSpeed="0.00" departDelay="0.00" arrival="512.00" arrivalLane="B3E2_0" arrivalPos="496.00" arrivalSpeed="9.21" duration="280.00" routeLength="2495.93" waitingTime="0.00" waitingCount="0" stopTime="0.00" timeLoss="29.18" rerouteNo="0" devices="tripinfo_6.37" vType="paperVehicle" speedFactor="0.88" vaporized=""/>
    <tripinfo id="6.38" depart="236.00" departLane="N1A1_0" departPos="5.10" departSpeed="0.00" departDelay="0.00" arrival="514.00" arrivalLane="B3E2_0" arrivalPos="496.00" arrivalSpeed="9.60" duration="278.00" routeLength="2495.93" waitingTime="0.00" waitingCount="0" stopTime="0.00" timeLoss="27.19" rerouteNo="0" devices="tripinfo_6.38" vType="paperVehicle" speedFactor="0.91" vaporized=""/>
    <tripinfo id="4.5" depart="160.00" departLane="W1A1_0" departPos="5.10" departSpeed="0.00" departDelay="0.00" arrival="515.00" arrivalLane="A3E1_0" arrivalPos="496.00" arrivalSpeed="8.98" duration="355.00" routeLength="1994.90" waitingTime="123.00" waitingCount="4" stopTime="0.00" timeLoss="154.83" rerouteNo="0" devices="tripinfo_4.5" vType="paperVehicle" speedFactor="1.04" vaporized=""/>
    <tripinfo id="6.39" depart="239.00" departLane="N1A1_0" departPos="5.10" departSpeed="0.00" departDelay="2.00" arrival="516.00" arrivalLane="B3E2_0" arrivalPos="496.00" arrivalSpeed="9.49" duration="277.00" routeLength="2495.93" waitingTime="0.00" waitingCount="0" stopTime="0.00" timeLoss="26.71" rerouteNo="0" devices="tripinfo_6.39" vType="paperVehicle" speedFactor="1.04" vaporized=""/>
    <tripinfo id="4.6" depart="197.00" departLane="W1A1_0" departPos="5.10" departSpeed="0.00" departDelay="0.00" arrival="517.00" arrivalLane="A3E1_0" arrivalPos="496.00" arrivalSpeed="9.24" duration="320.00" routeLength="1994.90" waitingTime="90.00" waitingCount="3" stopTime="0.00" timeLoss="119.95" rerouteNo="0" devices="tripinfo_4.6" vType="paperVehicle" speedFactor="1.10" vaporized=""/>
    <tripinfo id="6.40" depart="243.00" departLane="N1A1_0" departPos="5.10" departSpeed="0.00" departDelay="0.00" arrival="518.00" arrivalLane="B3E2_0" arrivalPos="496.00" arrivalSpeed="9.46" duration="275.00" routeLength="2495.93" waitingTime="0.00" waitingCount="0" stopTime="0.00" timeLoss="24.41" rerouteNo="0" devices="tripinfo_6.40" vType="paperVehicle" speedFactor="1.02" vaporized=""/>