<?xml version="1.0" encoding="UTF-8"?>

<!-- generated on 2022-01-31 17:25:29 by Eclipse SUMO sumo Version 1.10.0
<configuration xmlns:xsi="http://www.w3.org/2001/XMLSchema-instance" xsi:noNamespaceSchemaLocation="http://sumo.dlr.de/xsd/sumoConfiguration.xsd">

    <input>
        <net-file value="C:\Users\Marcus\Desktop\Hauptordner\Studium\Masterstudium\3.%20Semester\Projekt_Sim-Opt\Traffic_Simulation\GridNetwork\2x3net.net.xml"/>
        <route-files value="C:\Users\Marcus\Desktop\Hauptordner\Studium\Masterstudium\3.%20Semester\Projekt_Sim-Opt\Traffic_Simulation\GridNetwork\2x3Routes.xml"/>
        <additional-files value="C:\Users\Marcus\Desktop\Hauptordner\Studium\Masterstudium\3.%20Semester\Projekt_Sim-Opt\Traffic_Simulation\GridNetwork\additionals.xml"/>
    </input>

    <output>
        <tripinfo-output value="../tripinfo.xml"/>
        <statistic-output value="../statistics.xml"/>
    </output>

    <report>
        <no-step-log value="true"/>
    </report>

    <traci_server>
        <remote-port value="63178"/>
    </traci_server>

</configuration>
-->

<tripinfos xmlns:xsi="http://www.w3.org/2001/XMLSchema-instance" xsi:noNamespaceSchemaLocation="http://sumo.dlr.de/xsd/tripinfo_file.xsd">
    <tripinfo id="3.0" depart="13.00" departLane="N3A3_0" departPos="5.10" departSpeed="0.00" departDelay="0.00" arrival="195.00" arrivalLane="B3S3_0" arrivalPos="492.80" arrivalSpeed="8.79" duration="182.00" routeLength="1494.90" waitingTime="11.00" waitingCount="2" stopTime="0.00" timeLoss="32.18" rerouteNo="0" devices="tripinfo_3.0" vType="paperVehicle" speedFactor="1.03" vaporized=""/>
    <tripinfo id="3.1" depart="64.00" departLane="N3A3_0" departPos="5.10" departSpeed="0.00" departDelay="0.00" arrival="235.00" arrivalLane="B3S3_0" arrivalPos="492.80" arrivalSpeed="8.94" duration="171.00" routeLength="1494.90" waitingTime="4.00" waitingCount="1" stopTime="0.00" timeLoss="20.86" rerouteNo="0" devices="tripinfo_3.1" vType="paperVehicle" speedFactor="0.92" vaporized=""/>
    <tripinfo id="2.0" depart="42.00" departLane="N2A2_0" departPos="5.10" departSpeed="0.00" departDelay="0.00" arrival="246.00" arrivalLane="B2S2_0" arrivalPos="492.80" arrivalSpeed="9.88" duration="204.00" routeLength="1494.90" waitingTime="33.00" waitingCount="2" stopTime="0.00" timeLoss="53.55" rerouteNo="0" devices="tripinfo_2.0" vType="paperVehicle" speedFactor="0.88" vaporized=""/>
    <tripinfo id="2.1" depart="53.00" departLane="N2A2_0" departPos="5.10" departSpeed="0.00" departDelay="0.00" arrival="248.00" arrivalLane="B2S2_0" arrivalPos="492.80" arrivalSpeed="9.92" duration="195.00" routeLength="1494.90" waitingTime="28.00" waitingCount="1" stopTime="0.00" timeLoss="44.88" rerouteNo="0" devices="tripinfo_2.1" vType="paperVehicle" speedFactor="0.98" vaporized=""/>
    <tripinfo id="1.0" depart="80.00" departLane="N1A1_0" departPos="5.10" departSpeed="0.00" departDelay="2.00" arrival="259.00" arrivalLane="B1S1_0" arrivalPos="492.80" arrivalSpeed="9.58" duration="179.00" routeLength="1494.90" waitingTime="3.00" waitingCount="1" stopTime="0.00" timeLoss="29.49" rerouteNo="0" devices="tripinfo_1.0" vType="paperVehicle" speedFactor="1.01" vaporized=""/>
    <tripinfo id="5.0" depart="19.00" departLane="W2B1_0" departPos="5.10" departSpeed="0.00" departDelay="0.00" arrival="260.00" arrivalLane="B3E2_0" arrivalPos="496.00" arrivalSpeed="9.71" duration="241.00" routeLength="1994.90" waitingTime="16.00" waitingCount="1" stopTime="0.00" timeLoss="40.79" rerouteNo="0" devices="tripinfo_5.0" vType="paperVehicle" speedFactor="0.89" vaporized=""/>
    <tripinfo id="5.1" depart="37.00" departLane="W2B1_0" departPos="5.10" departSpeed="0.00" departDelay="0.00" arrival="262.00" arrivalLane="B3E2_0" arrivalPos="496.00" arrivalSpeed="9.28" duration="225.00" routeLength="1994.90" waitingTime="5.00" waitingCount="1" stopTime="0.00" timeLoss="25.23" rerouteNo="0" devices="tripinfo_5.1" vType="paperVehicle" speedFactor="0.99" vaporized=""/>
    <tripinfo id="5.2" depart="40.00" departLane="W2B1_0" departPos="5.10" departSpeed="0.00" departDelay="2.00" arrival="265.00" arrivalLane="B3E2_0" arrivalPos="496.00" arrivalSpeed="9.96" duration="225.00" routeLength="1994.90" waitingTime="4.00" waitingCount="1" stopTime="0.00" timeLoss="24.59" rerouteNo="0" devices="tripinfo_5.2" vType="paperVehicle" speedFactor="0.93" vaporized=""/>
    <tripinfo id="3.2" depart="90.00" departLane="N3A3_0" departPos="5.10" departSpeed="0.00" departDelay="0.00" arrival="272.00" arrivalLane="B3S3_0" arrivalPos="492.80" arrivalSpeed="9.98" duration="182.00" routeLength="1494.90" waitingTime="12.00" waitingCount="2" stopTime="0.00" timeLoss="31.66" rerouteNo="0" devices="tripinfo_3.2" vType="paperVehicle" speedFactor="0.97" vaporized=""/>
    <tripinfo id="5.3" depart="48.00" departLane="W2B1_0" departPos="5.10" departSpeed="0.00" departDelay="0.00" arrival="282.00" arrivalLane="B3E2_0" arrivalPos="496.00" arrivalSpeed="8.76" duration="234.00" routeLength="1994.90" waitingTime="12.00" waitingCount="1" stopTime="0.00" timeLoss="33.95" rerouteNo="0" devices="tripinfo_5.3" vType="paperVehicle" speedFactor="0.94" vaporized=""/>
    <tripinfo id="5.4" depart="59.00" departLane="W2B1_0" departPos="5.10" departSpeed="0.00" departDelay="0.00" arrival="284.00" arrivalLane="B3E2_0" arrivalPos="496.00" arrivalSpeed="10.00" duration="225.00" routeLength="1994.90" waitingTime="3.00" waitingCount="1" stopTime="0.00" timeLoss="25.03" rerouteNo="0" devices="tripinfo_5.4" vType="paperVehicle" speedFactor="0.83" vaporized=""/>
    <tripinfo id="1.1" depart="126.00" departLane="N1A1_0" departPos="5.10" departSpeed="0.00" departDelay="0.00" arrival="301.00" arrivalLane="B1S1_0" arrivalPos="492.80" arrivalSpeed="9.42" duration="175.00" routeLength="1494.90" waitingTime="6.00" waitingCount="1" stopTime="0.00" timeLoss="25.16" rerouteNo="0" devices="tripinfo_1.1" vType="paperVehicle" speedFactor="0.85" vaporized=""/>
    <tripinfo id="2.2" depart="81.00" departLane="N2A2_0" departPos="5.10" departSpeed="0.00" departDelay="0.00" arrival="303.00" arrivalLane="B2S2_0" arrivalPos="492.80" arrivalSpeed="8.85" duration="222.00" routeLength="1494.90" waitingTime="51.00" waitingCount="2" stopTime="0.00" timeLoss="72.04" rerouteNo="0" devices="tripinfo_2.2" vType="paperVehicle" speedFactor="1.02" vaporized=""/>
    <tripinfo id="2.3" depart="128.00" departLane="N2A2_0" departPos="5.10" departSpeed="0.00" departDelay="0.00" arrival="305.00" arrivalLane="B2S2_0" arrivalPos="492.80" arrivalSpeed="9.72" duration="177.00" routeLength="1494.90" waitingTime="9.00" waitingCount="1" stopTime="0.00" timeLoss="27.33" rerouteNo="0" devices="tripinfo_2.3" vType="paperVehicle" speedFactor="1.17" vaporized=""/>
    <tripinfo id="6.0" depart="4.00" departLane="N1A1_0" departPos="5.10" departSpeed="0.00" departDelay="0.00" arrival="322.00" arrivalLane="B3E2_0" arrivalPos="496.00" arrivalSpeed="9.08" duration="318.00" routeLength="2495.93" waitingTime="35.00" waitingCount="3" stopTime="0.00" timeLoss="67.32" rerouteNo="0" devices="tripinfo_6.0" vType="paperVehicle" speedFactor="1.06" vaporized=""/>
    <tripinfo id="6.1" depart="8.00" departLane="N1A1_0" departPos="5.10" departSpeed="0.00" departDelay="0.00" arrival="324.00" arrivalLane="B3E2_0" arrivalPos="496.00" arrivalSpeed="9.52" duration="316.00" routeLength="2495.93" waitingTime="32.00" waitingCount="3" stopTime="0.00" timeLoss="65.11" rerouteNo="0" devices="tripinfo_6.1" vType="paperVehicle" speedFactor="0.94" vaporized=""/>
    <tripinfo id="1.2" depart="153.00" departLane="N1A1_0" departPos="5.10" departSpeed="0.00" departDelay="6.00" arrival="324.00" arrivalLane="B1S1_0" arrivalPos="492.80" arrivalSpeed="9.92" duration="171.00" routeLength="1494.90" waitingTime="0.00" waitingCount="0" stopTime="0.00" timeLoss="20.60" rerouteNo="0" devices="tripinfo_1.2" vType="paperVehicle" speedFactor="1.12" vaporized=""/>
    <tripinfo id="6.2" depart="11.00" departLane="N1A1_0" departPos="5.10" departSpeed="0.00" departDelay="1.00" arrival="326.00" arrivalLane="B3E2_0" arrivalPos="496.00" arrivalSpeed="9.45" duration="315.00" routeLength="2495.93" waitingTime="26.00" waitingCount="3" stopTime="0.00" timeLoss="64.42" rerouteNo="0" devices="tripinfo_6.2" vType="paperVehicle" speedFactor="1.01" vaporized=""/>
    <tripinfo id="1.3" depart="156.00" departLane="N1A1_0" departPos="5.10" departSpeed="0.00" departDelay="8.00" arrival="326.00" arrivalLane="B1S1_0" arrivalPos="492.80" arrivalSpeed="8.87" duration="170.00" routeLength="1494.90" waitingTime="0.00" waitingCount="0" stopTime="0.00" timeLoss="20.19" rerouteNo="0" devices="tripinfo_1.3" vType="paperVehicle" speedFactor="1.02" vaporized=""/>
    <tripinfo id="6.3" depart="14.00" departLane="N1A1_0" departPos="5.10" departSpeed="0.00" departDelay="2.00" arrival="328.00" arrivalLane="B3E2_0" arrivalPos="496.00" arrivalSpeed="9.68" duration="314.00" routeLength="2495.93" waitingTime="24.00" waitingCount="3" stopTime="0.00" timeLoss="64.02" rerouteNo="0" devices="tripinfo_6.3" vType="paperVehicle" speedFactor="1.08" vaporized=""/>
    <tripinfo id="1.4" depart="159.00" departLane="N1A1_0" departPos="5.10" departSpeed="0.00" departDelay="7.00" arrival="328.00" arrivalLane="B1S1_0" arrivalPos="492.80" arrivalSpeed="9.34" duration="169.00" routeLength="1494.90" waitingTime="0.00" waitingCount="0" stopTime="0.00" timeLoss="19.20" rerouteNo="0" devices="tripinfo_1.4" vType="paperVehicle" speedFactor="0.88" vaporized=""/>
    <tripinfo id="6.4" depart="17.00" departLane="N1A1_0" departPos="5.10" departSpeed="0.00" departDelay="4.00" arrival="331.00" arrivalLane="B3E2_0" arrivalPos="496.00" arrivalSpeed="8.96" duration="314.00" routeLength="2495.93" waitingTime="21.00" waitingCount="3" stopTime="0.00" timeLoss="62.94" rerouteNo="0" devices="tripinfo_6.4" vType="paperVehicle" speedFactor="0.83" vaporized=""/>
    <tripinfo id="6.5" depart="20.00" departLane="N1A1_0" departPos="5.10" departSpeed="0.00" departDelay="5.00" arrival="333.00" arrivalLane="B3E2_0" arrivalPos="496.00" arrivalSpeed="9.68" duration="313.00" routeLength="2495.93" waitingTime="17.00" waitingCount="3" stopTime="0.00" timeLoss="62.29" rerouteNo="0" devices="tripinfo_6.5" vType="paperVehicle" speedFactor="1.05" vaporized=""/>
    <tripinfo id="6.6" depart="24.00" departLane="N1A1_0" departPos="5.10" departSpeed="0.00" departDelay="0.00" arrival="335.00" arrivalLane="B3E2_0" arrivalPos="496.00" arrivalSpeed="9.19" duration="311.00" routeLength="2495.93" waitingTime="15.00" waitingCount="3" stopTime="0.00" timeLoss="60.53" rerouteNo="0" devices="tripinfo_6.6" vType="paperVehicle" speedFactor="0.94" vaporized=""/>
    <tripinfo id="6.7" depart="27.00" departLane="N1A1_0" departPos="5.10" departSpeed="0.00" departDelay="2.00" arrival="337.00" arrivalLane="B3E2_0" arrivalPos="496.00" arrivalSpeed="9.64" duration="310.00" routeLength="2495.93" waitingTime="12.00" waitingCount="3" stopTime="0.00" timeLoss="59.17" rerouteNo="0" devices="tripinfo_6.7" vType="paperVehicle" speedFactor="0.86" vaporized=""/>
    <tripinfo id="6.8" depart="30.00" departLane="N1A1_0" departPos="5.10" departSpeed="0.00" departDelay="4.00" arrival="339.00" arrivalLane="B3E2_0" arrivalPos="496.00" arrivalSpeed="8.91" duration="309.00" routeLength="2495.93" waitingTime="10.00" waitingCount="3" stopTime="0.00" timeLoss="58.95" rerouteNo="0" devices="tripinfo_6.8" vType="paperVehicle" speedFactor="1.09" vaporized=""/>
    <tripinfo id="6.9" depart="33.00" departLane="N1A1_0" departPos="5.10" departSpeed="0.00" departDelay="3.00" arrival="342.00" arrivalLane="B3E2_0" arrivalPos="496.00" arrivalSpeed="9.40" duration="309.00" routeLength="2495.93" waitingTime="8.00" waitingCount="3" stopTime="0.00" timeLoss="58.05" rerouteNo="0" devices="tripinfo_6.9" vType="paperVehicle" speedFactor="1.03" vaporized=""/>
    <tripinfo id="6.10" depart="36.00" departLane="N1A1_0" departPos="5.10" departSpeed="0.00" departDelay="4.00" arrival="344.00" arrivalLane="B3E2_0" arrivalPos="496.00" arrivalSpeed="8.96" duration="308.00" routeLength="2495.93" waitingTime="6.00" waitingCount="3" stopTime="0.00" timeLoss="57.42" rerouteNo="0" devices="tripinfo_6.10" vType="paperVehicle" speedFactor="1.05" vaporized=""/>
    <tripinfo id="6.11" depart="39.00" departLane="N1A1_0" departPos="5.10" departSpeed="0.00" departDelay="6.00" arrival="346.00" arrivalLane="B3E2_0" arrivalPos="496.00" arrivalSpeed="9.28" duration="307.00" routeLength="2495.93" waitingTime="6.00" waitingCount="3" stopTime="0.00" timeLoss="56.52" rerouteNo="0" devices="tripinfo_6.11" vType="paperVehicle" speedFactor="1.12" vaporized=""/>
    <tripinfo id="6.12" depart="46.00" departLane="N1A1_0" departPos="5.10" departSpeed="0.00" departDelay="0.00" arrival="348.00" arrivalLane="B3E2_0" arrivalPos="496.00" arrivalSpeed="9.25" duration="302.00" routeLength="2495.93" waitingTime="5.00" waitingCount="2" stopTime="0.00" timeLoss="51.06" rerouteNo="0" devices="tripinfo_6.12" vType="paperVehicle" speedFactor="0.94" vaporized=""/>
    <tripinfo id="6.13" depart="48.00" departLane="N1A1_0" departPos="5.10" departSpeed="0.00" departDelay="0.00" arrival="350.00" arrivalLane="B3E2_0" arrivalPos="496.00" arrivalSpeed="8.85" duration="302.00" routeLength="2495.93" waitingTime="2.00" waitingCount="2" stopTime="0.00" timeLoss="51.39" rerouteNo="0" devices="tripinfo_6.13" vType="paperVehicle" speedFactor="1.16" vaporized=""/>
    <tripinfo id="6.14" depart="51.00" departLane="N1A1_0" departPos="5.10" departSpeed="0.00" departDelay="1.00" arrival="352.00" arrivalLane="B3E2_0" arrivalPos="496.00" arrivalSpeed="9.79" duration="301.00" routeLength="2495.93" waitingTime="2.00" waitingCount="2" stopTime="0.00" timeLoss="50.48" rerouteNo="0" devices="tripinfo_6.14" vType="paperVehicle" speedFactor="1.02" vaporized=""/>
    <tripinfo id="4.0" depart="79.00" departLane="W1A1_0" departPos="5.10" departSpeed="0.00" departDelay="0.00" arrival="353.00" arrivalLane="A3E1_0" arrivalPos="496.00" arrivalSpeed="9.03" duration="274.00" routeLength="1994.90" waitingTime="48.00" waitingCount="3" stopTime="0.00" timeLoss="73.75" rerouteNo="0" devices="tripinfo_4.0" vType="paperVehicle" speedFactor="1.17" vaporized=""/>
    <tripinfo id="6.15" depart="55.00" departLane="N1A1_0" departPos="5.10" departSpeed="0.00" departDelay="3.00" arrival="354.00" arrivalLane="B3E2_0" arrivalPos="496.00" arrivalSpeed="9.65" duration="299.00" routeLength="2495.93" waitingTime="0.00" waitingCount="0" stopTime="0.00" timeLoss="48.31" rerouteNo="0" devices="tripinfo_6.15" vType="paperVehicle" speedFactor="1.01" vaporized=""/>
    <tripinfo id="4.1" depart="92.00" departLane="W1A1_0" departPos="5.10" departSpeed="0.00" departDelay="0.00" arrival="355.00" arrivalLane="A3E1_0" arrivalPos="496.00" arrivalSpeed="9.45" duration="263.00" routeLength="1994.90" waitingTime="33.00" waitingCount="2" stopTime="0.00" timeLoss="62.77" rerouteNo="0" devices="tripinfo_4.1" vType="paperVehicle" speedFactor="0.90" vaporized=""/>
    <tripinfo id="6.16" depart="58.00" departLane="N1A1_0" departPos="5.10" departSpeed="0.00" departDelay="5.00" arrival="356.00" arrivalLane="B3E2_0" arrivalPos="496.00" arrivalSpeed="9.08" duration="298.00" routeLength="2495.93" waitingTime="0.00" waitingCount="0" stopTime="0.00" timeLoss="47.28" rerouteNo="0" devices="tripinfo_6.16" vType="paperVehicle" speedFactor="0.89" vaporized=""/>
    <tripinfo id="5.5" depart="80.00" departLane="W2B1_0" departPos="5.10" departSpeed="0.00" departDelay="0.00" arrival="358.00" arrivalLane="B3E2_0" arrivalPos="496.00" arrivalSpeed="9.87" duration="278.00" routeLength="1994.90" waitingTime="41.00" waitingCount="1" stopTime="0.00" timeLoss="78.29" rerouteNo="0" devices="tripinfo_5.5" vType="paperVehicle" speedFactor="0.99" vaporized=""/>
    <tripinfo id="5.6" depart="116.00" departLane="W2B1_0" departPos="5.10" departSpeed="0.00" departDelay="0.00" arrival="361.00" arrivalLane="B3E2_0" arrivalPos="496.00" arrivalSpeed="9.95" duration="245.00" routeLength="1994.90" waitingTime="9.00" waitingCount="1" stopTime="0.00" timeLoss="44.73" rerouteNo="0" devices="tripinfo_5.6" vType="paperVehicle" speedFactor="1.00" vaporized=""/>
    <tripinfo id="6.17" depart="61.00" departLane="N1A1_0" departPos="5.10" departSpeed="0.00" departDelay="0.00" arrival="366.00" arrivalLane="B3E2_0" arrivalPos="496.00" arrivalSpeed="9.55" duration="305.00" routeLength="2495.93" waitingTime="23.00" waitingCount="3" stopTime="0.00" timeLoss="54.40" rerouteNo="0" devices="tripinfo_6.17" vType="paperVehicle" speedFactor="0.87" vaporized=""/>
    <tripinfo id="6.18" depart="65.00" departLane="N1A1_0" departPos="5.10" departSpeed="0.00" departDelay="0.00" arrival="368.00" arrivalLane="B3E2_0" arrivalPos="496.00" arrivalSpeed="9.26" duration="303.00" routeLength="2495.93" waitingTime="20.00" waitingCount="3" stopTime="0.00" timeLoss="52.78" rerouteNo="0" devices="tripinfo_6.18" vType="paperVehicle" speedFactor="0.95" vaporized=""/>
    <tripinfo id="1.5" depart="192.00" departLane="N1A1_0" departPos="5.10" departSpeed="0.00" departDelay="3.00" arrival="370.00" arrivalLane="B1S1_0" arrivalPos="492.80" arrivalSpeed="9.79" duration="178.00" routeLength="1494.90" waitingTime="8.00" waitingCount="1" stopTime="0.00" timeLoss="27.63" rerouteNo="0" devices="tripinfo_1.5" vType="paperVehicle" speedFactor="1.01" vaporized=""/>
    <tripinfo id="6.19" depart="68.00" departLane="N1A1_0" departPos="5.10" departSpeed="0.00" departDelay="0.00" arrival="371.00" arrivalLane="B3E2_0" arrivalPos="496.00" arrivalSpeed="9.80" duration="303.00" routeLength="2495.93" waitingTime="15.00" waitingCount="2" stopTime="0.00" timeLoss="52.56" rerouteNo="0" devices="tripinfo_6.19" vType="paperVehicle" speedFactor="1.13" vaporized=""/>
    <tripinfo id="1.6" depart="201.00" departLane="N1A1_0" departPos="5.10" departSpeed="0.00" departDelay="4.00" arrival="376.00" arrivalLane="B1S1_0" arrivalPos="492.80" arrivalSpeed="9.19" duration="175.00" routeLength="1494.90" waitingTime="3.00" waitingCount="1" stopTime="0.00" timeLoss="24.71" rerouteNo="0" devices="tripinfo_1.6" vType="paperVehicle" speedFactor="1.02" vaporized=""/>
    <tripinfo id="3.3" depart="148.00" departLane="N3A3_0" departPos="5.10" departSpeed="0.00" departDelay="0.00" arrival="377.00" arrivalLane="B3S3_0" arrivalPos="492.80" arrivalSpeed="9.57" duration="229.00" routeLength="1494.90" waitingTime="58.00" waitingCount="2" stopTime="0.00" timeLoss="79.30" rerouteNo="0" devices="tripinfo_3.3" vType="paperVehicle" speedFactor="0.99" vaporized=""/>
    <tripinfo id="3.4" depart="151.00" departLane="N3A3_0" departPos="5.10" departSpeed="0.00" departDelay="2.00" arrival="380.00" arrivalLane="B3S3_0" arrivalPos="492.80" arrivalSpeed="9.90" duration="229.00" routeLength="1494.90" waitingTime="55.00" waitingCount="2" stopTime="0.00" timeLoss="78.72" rerouteNo="0" devices="tripinfo_3.4" vType="paperVehicle" speedFactor="0.94" vaporized=""/>
    <tripinfo id="1.7" depart="210.00" departLane="N1A1_0" departPos="5.10" departSpeed="0.00" departDelay="5.00" arrival="383.00" arrivalLane="B1S1_0" arrivalPos="492.80" arrivalSpeed="9.79" duration="173.00" routeLength="1494.90" waitingTime="2.00" waitingCount="1" stopTime="0.00" timeLoss="23.06" rerouteNo="0" devices="tripinfo_1.7" vType="paperVehicle" speedFactor="1.00" vaporized=""/>
    <tripinfo id="1.8" depart="213.00" departLane="N1A1_0" departPos="5.10" departSpeed="0.00" departDelay="7.00" arrival="386.00" arrivalLane="B1S1_0" arrivalPos="492.80" arrivalSpeed="9.94" duration="173.00" routeLength="1494.90" waitingTime="0.00" waitingCount="0" stopTime="0.00" timeLoss="22.74" rerouteNo="0" devices="tripinfo_1.8" vType="paperVehicle" speedFactor="1.04" vaporized=""/>
    <tripinfo id="6.20" depart="71.00" departLane="N1A1_0" departPos="5.10" departSpeed="0.00" departDelay="0.00" arrival="388.00" arrivalLane="B3E2_0" arrivalPos="496.00" arrivalSpeed="9.68" duration="317.00" routeLength="2495.93" waitingTime="24.00" waitingCount="3" stopTime="0.00" timeLoss="65.83" rerouteNo="0" devices="tripinfo_6.20" vType="paperVehicle" speedFactor="0.93" vaporized=""/>
    <tripinfo id="6.21" depart="74.00" departLane="N1A1_0" departPos="5.10" departSpeed="0.00" departDelay="1.00" arrival="390.00" arrivalLane="B3E2_0" arrivalPos="496.00" arrivalSpeed="9.58" duration="316.00" routeLength="2495.93" waitingTime="22.00" waitingCount="3" stopTime="0.00" timeLoss="65.54" rerouteNo="0" devices="tripinfo_6.21" vType="paperVehicle" speedFactor="1.18" vaporized=""/>
    <tripinfo id="6.22" depart="77.00" departLane="N1A1_0" departPos="5.10" departSpeed="0.00" departDelay="2.00" arrival="392.00" arrivalLane="B3E2_0" arrivalPos="496.00" arrivalSpeed="9.53" duration="315.00" routeLength="2495.93" waitingTime="19.00" waitingCount="3" stopTime="0.00" timeLoss="64.64" rerouteNo="0" devices="tripinfo_6.22" vType="paperVehicle" speedFactor="1.15" vaporized=""/>
    <tripinfo id="6.23" depart="90.00" departLane="N1A1_0" departPos="5.10" departSpeed="0.00" departDelay="0.00" arrival="395.00" arrivalLane="B3E2_0" arrivalPos="496.00" arrivalSpeed="9.40" duration="305.00" routeLength="2495.93" waitingTime="11.00" waitingCount="2" stopTime="0.00" timeLoss="54.29" rerouteNo="0" devices="tripinfo_6.23" vType="paperVehicle" speedFactor="1.18" vaporized=""/>
    <tripinfo id="6.24" depart="93.00" departLane="N1A1_0" departPos="5.10" departSpeed="0.00" departDelay="2.00" arrival="397.00" arrivalLane="B3E2_0" arrivalPos="496.00" arrivalSpeed="8.98" duration="304.00" routeLength="2495.93" waitingTime="10.00" waitingCount="2" stopTime="0.00" timeLoss="53.33" rerouteNo="0" devices="tripinfo_6.24" vType="paperVehicle" speedFactor="1.10" vaporized=""/>
    <tripinfo id="6.25" depart="96.00" departLane="N1A1_0" departPos="5.10" departSpeed="0.00" departDelay="4.00" arrival="399.00" arrivalLane="B3E2_0" arrivalPos="496.00" arrivalSpeed="9.79" duration="303.00" routeLength="2495.93" waitingTime="9.00" waitingCount="2" stopTime="0.00" timeLoss="51.85" rerouteNo="0" devices="tripinfo_6.25" vType="paperVehicle" speedFactor="1.03" vaporized=""/>
    <tripinfo id="6.26" depart="99.00" departLane="N1A1_0" departPos="5.10" departSpeed="0.00" departDelay="5.00" arrival="401.00" arrivalLane="B3E2_0" arrivalPos="496.00" arrivalSpeed="9.38" duration="302.00" routeLength="2495.93" waitingTime="7.00" waitingCount="2" stopTime="0.00" timeLoss="51.66" rerouteNo="0" devices="tripinfo_6.26" vType="paperVehicle" speedFactor="1.09" vaporized=""/>
    <tripinfo id="6.27" depart="107.00" departLane="N1A1_0" departPos="5.10" departSpeed="0.00" departDelay="0.00" arrival="403.00" arrivalLane="B3E2_0" arrivalPos="496.00" arrivalSpeed="9.06" duration="296.00" routeLength="2495.93" waitingTime="6.00" waitingCount="1" stopTime="0.00" timeLoss="45.48" rerouteNo="0" devices="tripinfo_6.27" vType="paperVehicle" speedFactor="1.04" vaporized=""/>
    <tripinfo id="6.28" depart="112.00" departLane="N1A1_0" departPos="5.10" departSpeed="0.00" departDelay="0.00" arrival="405.00" arrivalLane="B3E2_0" arrivalPos="496.00" arrivalSpeed="9.74" duration="293.00" routeLength="2495.93" waitingTime="5.00" waitingCount="1" stopTime="0.00" timeLoss="42.64" rerouteNo="0" devices="tripinfo_6.28" vType="paperVehicle" speedFactor="1.04" vaporized=""/>
    <tripinfo id="1.9" depart="237.00" departLane="N1A1_0" departPos="5.10" departSpeed="0.00" departDelay="2.00" arrival="406.00" arrivalLane="B1S1_0" arrivalPos="492.80" arrivalSpeed="9.31" duration="169.00" routeLength="1494.90" waitingTime="0.00" waitingCount="0" stopTime="0.00" timeLoss="19.04" rerouteNo="0" devices="tripinfo_1.9" vType="paperVehicle" speedFactor="1.12" vaporized=""/>
    <tripinfo id="5.7" depart="133.00" departLane="W2B1_0" departPos="5.10" departSpeed="0.00" departDelay="0.00" arrival="407.00" arrivalLane="B3E2_0" arrivalPos="496.00" arrivalSpeed="9.50" duration="274.00" routeLength="1994.90" waitingTime="42.00" waitingCount="2" stopTime="0.00" timeLoss="74.40" rerouteNo="0" devices="tripinfo_5.7" vType="paperVehicle" speedFactor="1.10" vaporized=""/>
    <tripinfo id="5.8" depart="160.00" departLane="W2B1_0" departPos="5.10" departSpeed="0.00" departDelay="0.00" arrival="409.00" arrivalLane="B3E2_0" arrivalPos="496.00" arrivalSpeed="9.28" duration="249.00" routeLength="1994.90" waitingTime="18.00" waitingCount="2" stopTime="0.00" timeLoss="49.43" rerouteNo="0" devices="tripinfo_5.8" vType="paperVehicle" speedFactor="0.91" vaporized=""/>
    <tripinfo id="6.29" depart="115.00" departLane="N1A1_0" departPos="5.10" departSpeed="0.00" departDelay="0.00" arrival="411.00" arrivalLane="B3E2_0" arrivalPos="496.00" arrivalSpeed="9.39" duration="296.00" routeLength="2495.93" waitingTime="14.00" waitingCount="2" stopTime="0.00" timeLoss="46.06" rerouteNo="0" devices="tripinfo_6.29" vType="paperVehicle" speedFactor="1.09" vaporized=""/>
    <tripinfo id="6.30" depart="118.00" departLane="N1A1_0" departPos="5.10" departSpeed="0.00" departDelay="2.00" arrival="414.00" arrivalLane="B3E2_0" arrivalPos="496.00" arrivalSpeed="9.86" duration="296.00" routeLength="2495.93" waitingTime="10.00" waitingCount="2" stopTime="0.00" timeLoss="44.67" rerouteNo="0" devices="tripinfo_6.30" vType="paperVehicle" speedFactor="0.90" vaporized=""/>
    <tripinfo id="2.4" depart="194.00" departLane="N2A2_0" departPos="5.10" departSpeed="0.00" departDelay="0.00" arrival="418.00" arrivalLane="B2S2_0" arrivalPos="492.80" arrivalSpeed="8.92" duration="224.00" routeLength="1494.90" waitingTime="54.00" waitingCount="2" stopTime="0.00" timeLoss="73.92" rerouteNo="0" devices="tripinfo_2.4" vType="paperVehicle" speedFactor="1.00" vaporized=""/>
    <tripinfo id="2.5" depart="209.00" departLane="N2A2_0" departPos="5.10" departSpeed="0.00" departDelay="0.00" arrival="420.00" arrivalLane="B2S2_0" arrivalPos="492.80" arrivalSpeed="9.83" duration="211.00" routeLength="1494.90" waitingTime="43.00" waitingCount="1" stopTime="0.00" timeLoss="61.16" rerouteNo="0" devices="tripinfo_2.5" vType="paperVehicle" speedFactor="1.01" vaporized=""/>
    <tripinfo id="6.31" depart="123.00" departLane="N1A1_0" departPos="5.10" departSpeed="0.00" departDelay="0.00" arrival="421.00" arrivalLane="B3E2_0" arrivalPos="496.00" arrivalSpeed="9.40" duration="298.00" routeLength="2495.93" waitingTime="18.00" waitingCount="2" stopTime="0.00" timeLoss="47.03" rerouteNo="0" devices="tripinfo_6.31" vType="paperVehicle" speedFactor="0.88" vaporized=""/>
    <tripinfo id="6.32" depart="129.00" departLane="N1A1_0" departPos="5.10" departSpeed="0.00" departDelay="2.00" arrival="423.00" arrivalLane="B3E2_0" arrivalPos="496.00" arrivalSpeed="8.99" duration="294.00" routeLength="2495.93" waitingTime="12.00" waitingCount="2" stopTime="0.00" timeLoss="43.24" rerouteNo="0" devices="tripinfo_6.32" vType="paperVehicle" speedFactor="0.85" vaporized=""/>
    <tripinfo id="6.33" depart="132.00" departLane="N1A1_0" departPos="5.10" departSpeed="0.00" departDelay="0.00" arrival="426.00" arrivalLane="B3E2_0" arrivalPos="496.00" arrivalSpeed="9.72" duration="294.00" routeLength="2495.93" waitingTime="11.00" waitingCount="2" stopTime="0.00" timeLoss="43.14" rerouteNo="0" devices="tripinfo_6.33" vType="paperVehicle" speedFactor="1.02" vaporized=""/>
    <tripinfo id="4.2" depart="95.00" departLane="W1A1_0" departPos="5.10" departSpeed="0.00" departDelay="2.00" arrival="433.00" arrivalLane="A3E1_0" arrivalPos="496.00" arrivalSpeed="8.93" duration="338.00" routeLength="1994.90" waitingTime="105.00" waitingCount="4" stopTime="0.00" timeLoss="137.89" rerouteNo="0" devices="tripinfo_4.2" vType="paperVehicle" speedFactor="0.96" vaporized=""/>
    <tripinfo id="3.5" depart="165.00" departLane="N3A3_0" departPos="5.10" departSpeed="0.00" departDelay="0.00" arrival="433.00" arrivalLane="B3S3_0" arrivalPos="492.80" arrivalSpeed="9.50" duration="268.00" routeLength="1494.90" waitingTime="97.00" waitingCount="2" stopTime="0.00" timeLoss="117.80" rerouteNo="0" devices="tripinfo_3.5" vType="paperVehicle" speedFactor="1.04" vaporized=""/>
    <tripinfo id="4.3" depart="145.00" departLane="W1A1_0" departPos="5.10" departSpeed="0.00" departDelay="0.00" arrival="435.00" arrivalLane="A3E1_0" arrivalPos="496.00" arrivalSpeed="8.79" duration="290.00" routeLength="1994.90" waitingTime="58.00" waitingCount="3" stopTime="0.00" timeLoss="90.43" rerouteNo="0" devices="tripinfo_4.3" vType="paperVehicle" speedFactor="0.97" vaporized=""/>
    <tripinfo id="3.6" depart="182.00" departLane="N3A3_0" departPos="5.10" departSpeed="0.00" departDelay="0.00" arrival="435.00" arrivalLane="B3S3_0" arrivalPos="492.80" arrivalSpeed="9.68" duration="253.00" routeLength="1494.90" waitingTime="81.00" waitingCount="2" stopTime="0.00" timeLoss="102.94" rerouteNo="0" devices="tripinfo_3.6" vType="paperVehicle" speedFactor="0.96" vaporized=""/>
    <tripinfo id="1.10" depart="258.00" departLane="N1A1_0" departPos="5.10" departSpeed="0.00" departDelay="0.00" arrival="438.00" arrivalLane="B1S1_0" arrivalPos="492.80" arrivalSpeed="9.53" duration="180.00" routeLength="1494.90" waitingTime="11.00" waitingCount="1" stopTime="0.00" timeLoss="30.15" rerouteNo="0" devices="tripinfo_1.10" vType="paperVehicle" speedFactor="1.03" vaporized=""/>
    <tripinfo id="6.34" depart="135.00" departLane="N1A1_0" departPos="5.10" departSpeed="0.00" departDelay="2.00" arrival="443.00" arrivalLane="B3E2_0" arrivalPos="496.00" arrivalSpeed="9.41" duration="308.00" routeLength="2495.93" waitingTime="20.00" waitingCount="3" stopTime="0.00" timeLoss="57.11" rerouteNo="0" devices="tripinfo_6.34" vType="paperVehicle" speedFactor="1.00" vaporized=""/>
    <tripinfo id="6.35" depart="138.00" departLane="N1A1_0" departPos="5.10" departSpeed="0.00" departDelay="4.00" arrival="445.00" arrivalLane="B3E2_0" arrivalPos="496.00" arrivalSpeed="9.93" duration="307.00" routeLength="2495.93" waitingTime="15.00" waitingCount="3" stopTime="0.00" timeLoss="56.57" rerouteNo="0" devices="tripinfo_6.35" vType="paperVehicle" speedFactor="1.00" vaporized=""/>