<?xml version="1.0" encoding="UTF-8"?>

<!-- generated on 2022-01-27 12:23:20 by Eclipse SUMO sumo Version 1.10.0
<configuration xmlns:xsi="http://www.w3.org/2001/XMLSchema-instance" xsi:noNamespaceSchemaLocation="http://sumo.dlr.de/xsd/sumoConfiguration.xsd">

    <input>
        <net-file value="../2x3net.net.xml"/>
        <route-files value="../2x3Routes.xml"/>
        <additional-files value="../additionals.xml"/>
    </input>

    <output>
        <tripinfo-output value="../tripinfo.xml"/>
        <statistic-output value="../statistics.xml"/>
    </output>

    <report>
        <no-step-log value="true"/>
    </report>

    <traci_server>
        <remote-port value="58531"/>
    </traci_server>

</configuration>
-->

<tripinfos xmlns:xsi="http://www.w3.org/2001/XMLSchema-instance" xsi:noNamespaceSchemaLocation="http://sumo.dlr.de/xsd/tripinfo_file.xsd">
    <tripinfo id="2.0" depart="12.00" departLane="N2A2_0" departPos="5.10" departSpeed="0.00" departDelay="0.00" arrival="175.00" arrivalLane="B2S2_0" arrivalPos="492.80" arrivalSpeed="8.78" duration="163.00" routeLength="1494.90" waitingTime="0.00" waitingCount="0" stopTime="0.00" timeLoss="13.00" rerouteNo="0" devices="tripinfo_2.0" vType="paperVehicle" speedFactor="1.03" vaporized=""/>
    <tripinfo id="3.0" depart="22.00" departLane="N3A3_0" departPos="5.10" departSpeed="0.00" departDelay="0.00" arrival="183.00" arrivalLane="B3S3_0" arrivalPos="492.80" arrivalSpeed="9.88" duration="161.00" routeLength="1494.90" waitingTime="0.00" waitingCount="0" stopTime="0.00" timeLoss="10.98" rerouteNo="0" devices="tripinfo_3.0" vType="paperVehicle" speedFactor="0.86" vaporized=""/>
    <tripinfo id="2.1" depart="29.00" departLane="N2A2_0" departPos="5.10" departSpeed="0.00" departDelay="0.00" arrival="216.00" arrivalLane="B2S2_0" arrivalPos="492.80" arrivalSpeed="9.42" duration="187.00" routeLength="1494.90" waitingTime="21.00" waitingCount="1" stopTime="0.00" timeLoss="37.49" rerouteNo="0" devices="tripinfo_2.1" vType="paperVehicle" speedFactor="1.12" vaporized=""/>
    <tripinfo id="1.0" depart="30.00" departLane="N1A1_0" departPos="5.10" departSpeed="0.00" departDelay="0.00" arrival="218.00" arrivalLane="B1S1_0" arrivalPos="492.80" arrivalSpeed="9.43" duration="188.00" routeLength="1494.90" waitingTime="18.00" waitingCount="1" stopTime="0.00" timeLoss="37.95" rerouteNo="0" devices="tripinfo_1.0" vType="paperVehicle" speedFactor="0.99" vaporized=""/>
    <tripinfo id="1.1" depart="64.00" departLane="N1A1_0" departPos="5.10" departSpeed="0.00" departDelay="2.00" arrival="227.00" arrivalLane="B1S1_0" arrivalPos="492.80" arrivalSpeed="8.82" duration="163.00" routeLength="1494.90" waitingTime="0.00" waitingCount="0" stopTime="0.00" timeLoss="12.78" rerouteNo="0" devices="tripinfo_1.1" vType="paperVehicle" speedFactor="1.16" vaporized=""/>
    <tripinfo id="3.1" depart="54.00" departLane="N3A3_0" departPos="5.10" departSpeed="0.00" departDelay="0.00" arrival="229.00" arrivalLane="B3S3_0" arrivalPos="492.80" arrivalSpeed="9.45" duration="175.00" routeLength="1494.90" waitingTime="10.00" waitingCount="1" stopTime="0.00" timeLoss="24.88" rerouteNo="0" devices="tripinfo_3.1" vType="paperVehicle" speedFactor="0.94" vaporized=""/>
    <tripinfo id="5.0" depart="1.00" departLane="W2B1_0" departPos="5.10" departSpeed="0.00" departDelay="0.00" arrival="255.00" arrivalLane="B3E2_0" arrivalPos="496.00" arrivalSpeed="9.73" duration="254.00" routeLength="1994.90" waitingTime="28.00" waitingCount="2" stopTime="0.00" timeLoss="54.03" rerouteNo="0" devices="tripinfo_5.0" vType="paperVehicle" speedFactor="0.94" vaporized=""/>
    <tripinfo id="5.1" depart="38.00" departLane="W2B1_0" departPos="5.10" departSpeed="0.00" departDelay="0.00" arrival="262.00" arrivalLane="B3E2_0" arrivalPos="496.00" arrivalSpeed="8.78" duration="224.00" routeLength="1994.90" waitingTime="4.00" waitingCount="1" stopTime="0.00" timeLoss="24.21" rerouteNo="0" devices="tripinfo_5.1" vType="paperVehicle" speedFactor="0.88" vaporized=""/>
    <tripinfo id="4.0" depart="7.00" departLane="W1A1_0" departPos="5.10" departSpeed="0.00" departDelay="0.00" arrival="289.00" arrivalLane="A3E1_0" arrivalPos="496.00" arrivalSpeed="9.74" duration="282.00" routeLength="1994.90" waitingTime="55.00" waitingCount="3" stopTime="0.00" timeLoss="81.85" rerouteNo="0" devices="tripinfo_4.0" vType="paperVehicle" speedFactor="1.01" vaporized=""/>
    <tripinfo id="4.1" depart="13.00" departLane="W1A1_0" departPos="5.10" departSpeed="0.00" departDelay="0.00" arrival="291.00" arrivalLane="A3E1_0" arrivalPos="496.00" arrivalSpeed="8.96" duration="278.00" routeLength="1994.90" waitingTime="47.00" waitingCount="3" stopTime="0.00" timeLoss="78.22" rerouteNo="0" devices="tripinfo_4.1" vType="paperVehicle" speedFactor="1.05" vaporized=""/>
    <tripinfo id="4.2" depart="25.00" departLane="W1A1_0" departPos="5.10" departSpeed="0.00" departDelay="0.00" arrival="293.00" arrivalLane="A3E1_0" arrivalPos="496.00" arrivalSpeed="9.53" duration="268.00" routeLength="1994.90" waitingTime="38.00" waitingCount="2" stopTime="0.00" timeLoss="68.35" rerouteNo="0" devices="tripinfo_4.2" vType="paperVehicle" speedFactor="1.03" vaporized=""/>
    <tripinfo id="5.2" depart="66.00" departLane="W2B1_0" departPos="5.10" departSpeed="0.00" departDelay="0.00" arrival="295.00" arrivalLane="B3E2_0" arrivalPos="496.00" arrivalSpeed="8.75" duration="229.00" routeLength="1994.90" waitingTime="9.00" waitingCount="1" stopTime="0.00" timeLoss="29.43" rerouteNo="0" devices="tripinfo_5.2" vType="paperVehicle" speedFactor="1.02" vaporized=""/>
    <tripinfo id="5.3" depart="78.00" departLane="W2B1_0" departPos="5.10" departSpeed="0.00" departDelay="0.00" arrival="298.00" arrivalLane="B3E2_0" arrivalPos="496.00" arrivalSpeed="8.86" duration="220.00" routeLength="1994.90" waitingTime="0.00" waitingCount="0" stopTime="0.00" timeLoss="19.67" rerouteNo="0" devices="tripinfo_5.3" vType="paperVehicle" speedFactor="0.98" vaporized=""/>
    <tripinfo id="6.0" depart="0.00" departLane="N1A1_0" departPos="5.10" departSpeed="0.00" departDelay="0.00" arrival="302.00" arrivalLane="B3E2_0" arrivalPos="496.00" arrivalSpeed="9.76" duration="302.00" routeLength="2495.93" waitingTime="28.00" waitingCount="1" stopTime="0.00" timeLoss="51.18" rerouteNo="0" devices="tripinfo_6.0" vType="paperVehicle" speedFactor="1.06" vaporized=""/>
    <tripinfo id="2.2" depart="102.00" departLane="N2A2_0" departPos="5.10" departSpeed="0.00" departDelay="0.00" arrival="302.00" arrivalLane="B2S2_0" arrivalPos="492.80" arrivalSpeed="8.94" duration="200.00" routeLength="1494.90" waitingTime="32.00" waitingCount="1" stopTime="0.00" timeLoss="49.72" rerouteNo="0" devices="tripinfo_2.2" vType="paperVehicle" speedFactor="1.13" vaporized=""/>
    <tripinfo id="6.1" depart="8.00" departLane="N1A1_0" departPos="5.10" departSpeed="0.00" departDelay="0.00" arrival="304.00" arrivalLane="B3E2_0" arrivalPos="496.00" arrivalSpeed="9.19" duration="296.00" routeLength="2495.93" waitingTime="23.00" waitingCount="1" stopTime="0.00" timeLoss="45.85" rerouteNo="0" devices="tripinfo_6.1" vType="paperVehicle" speedFactor="1.08" vaporized=""/>
    <tripinfo id="6.2" depart="12.00" departLane="N1A1_0" departPos="5.10" departSpeed="0.00" departDelay="0.00" arrival="307.00" arrivalLane="B3E2_0" arrivalPos="496.00" arrivalSpeed="9.46" duration="295.00" routeLength="2495.93" waitingTime="18.00" waitingCount="1" stopTime="0.00" timeLoss="44.87" rerouteNo="0" devices="tripinfo_6.2" vType="paperVehicle" speedFactor="0.83" vaporized=""/>
    <tripinfo id="6.3" depart="15.00" departLane="N1A1_0" departPos="5.10" departSpeed="0.00" departDelay="2.00" arrival="309.00" arrivalLane="B3E2_0" arrivalPos="496.00" arrivalSpeed="9.33" duration="294.00" routeLength="2495.93" waitingTime="18.00" waitingCount="1" stopTime="0.00" timeLoss="43.62" rerouteNo="0" devices="tripinfo_6.3" vType="paperVehicle" speedFactor="0.89" vaporized=""/>
    <tripinfo id="6.4" depart="18.00" departLane="N1A1_0" departPos="5.10" departSpeed="0.00" departDelay="2.00" arrival="318.00" arrivalLane="B3E2_0" arrivalPos="496.00" arrivalSpeed="9.18" duration="300.00" routeLength="2495.93" waitingTime="25.00" waitingCount="1" stopTime="0.00" timeLoss="48.96" rerouteNo="0" devices="tripinfo_6.4" vType="paperVehicle" speedFactor="0.94" vaporized=""/>
    <tripinfo id="6.5" depart="22.00" departLane="N1A1_0" departPos="5.10" departSpeed="0.00" departDelay="0.00" arrival="321.00" arrivalLane="B3E2_0" arrivalPos="496.00" arrivalSpeed="9.86" duration="299.00" routeLength="2495.93" waitingTime="24.00" waitingCount="1" stopTime="0.00" timeLoss="48.73" rerouteNo="0" devices="tripinfo_6.5" vType="paperVehicle" speedFactor="1.09" vaporized=""/>
    <tripinfo id="3.2" depart="148.00" departLane="N3A3_0" departPos="5.10" departSpeed="0.00" departDelay="0.00" arrival="327.00" arrivalLane="B3S3_0" arrivalPos="492.80" arrivalSpeed="9.98" duration="179.00" routeLength="1494.90" waitingTime="11.00" waitingCount="2" stopTime="0.00" timeLoss="29.31" rerouteNo="0" devices="tripinfo_3.2" vType="paperVehicle" speedFactor="0.96" vaporized=""/>
    <tripinfo id="6.6" depart="25.00" departLane="N1A1_0" departPos="5.10" departSpeed="0.00" departDelay="0.00" arrival="353.00" arrivalLane="B3E2_0" arrivalPos="496.00" arrivalSpeed="9.28" duration="328.00" routeLength="2495.93" waitingTime="49.00" waitingCount="2" stopTime="0.00" timeLoss="77.10" rerouteNo="0" devices="tripinfo_6.6" vType="paperVehicle" speedFactor="1.05" vaporized=""/>
    <tripinfo id="6.7" depart="36.00" departLane="N1A1_0" departPos="5.10" departSpeed="0.00" departDelay="0.00" arrival="356.00" arrivalLane="B3E2_0" arrivalPos="496.00" arrivalSpeed="8.84" duration="320.00" routeLength="2495.93" waitingTime="36.00" waitingCount="2" stopTime="0.00" timeLoss="68.89" rerouteNo="0" devices="tripinfo_6.7" vType="paperVehicle" speedFactor="0.93" vaporized=""/>
    <tripinfo id="6.8" depart="61.00" departLane="N1A1_0" departPos="5.10" departSpeed="0.00" departDelay="0.00" arrival="358.00" arrivalLane="B3E2_0" arrivalPos="496.00" arrivalSpeed="9.94" duration="297.00" routeLength="2495.93" waitingTime="22.00" waitingCount="1" stopTime="0.00" timeLoss="45.90" rerouteNo="0" devices="tripinfo_6.8" vType="paperVehicle" speedFactor="0.94" vaporized=""/>
    <tripinfo id="6.9" depart="69.00" departLane="N1A1_0" departPos="5.10" departSpeed="0.00" departDelay="0.00" arrival="360.00" arrivalLane="B3E2_0" arrivalPos="496.00" arrivalSpeed="9.98" duration="291.00" routeLength="2495.93" waitingTime="15.00" waitingCount="1" stopTime="0.00" timeLoss="40.49" rerouteNo="0" devices="tripinfo_6.9" vType="paperVehicle" speedFactor="1.01" vaporized=""/>
    <tripinfo id="5.4" depart="109.00" departLane="W2B1_0" departPos="5.10" departSpeed="0.00" departDelay="0.00" arrival="362.00" arrivalLane="B3E2_0" arrivalPos="496.00" arrivalSpeed="9.17" duration="253.00" routeLength="1994.90" waitingTime="26.00" waitingCount="2" stopTime="0.00" timeLoss="53.19" rerouteNo="0" devices="tripinfo_5.4" vType="paperVehicle" speedFactor="0.93" vaporized=""/>
    <tripinfo id="4.3" depart="124.00" departLane="W1A1_0" departPos="5.10" departSpeed="0.00" departDelay="0.00" arrival="371.00" arrivalLane="A3E1_0" arrivalPos="496.00" arrivalSpeed="8.79" duration="247.00" routeLength="1994.90" waitingTime="26.00" waitingCount="1" stopTime="0.00" timeLoss="47.25" rerouteNo="0" devices="tripinfo_4.3" vType="paperVehicle" speedFactor="1.01" vaporized=""/>
    <tripinfo id="1.2" depart="212.00" departLane="N1A1_0" departPos="5.10" departSpeed="0.00" departDelay="0.00" arrival="374.00" arrivalLane="B1S1_0" arrivalPos="492.80" arrivalSpeed="9.97" duration="162.00" routeLength="1494.90" waitingTime="0.00" waitingCount="0" stopTime="0.00" timeLoss="12.39" rerouteNo="0" devices="tripinfo_1.2" vType="paperVehicle" speedFactor="1.00" vaporized=""/>
    <tripinfo id="5.5" depart="144.00" departLane="W2B1_0" departPos="5.10" departSpeed="0.00" departDelay="0.00" arrival="381.00" arrivalLane="B3E2_0" arrivalPos="496.00" arrivalSpeed="8.71" duration="237.00" routeLength="1994.90" waitingTime="16.00" waitingCount="1" stopTime="0.00" timeLoss="37.02" rerouteNo="0" devices="tripinfo_5.5" vType="paperVehicle" speedFactor="1.03" vaporized=""/>
    <tripinfo id="6.10" depart="81.00" departLane="N1A1_0" departPos="5.10" departSpeed="0.00" departDelay="0.00" arrival="383.00" arrivalLane="B3E2_0" arrivalPos="496.00" arrivalSpeed="9.96" duration="302.00" routeLength="2495.93" waitingTime="22.00" waitingCount="2" stopTime="0.00" timeLoss="51.83" rerouteNo="0" devices="tripinfo_6.10" vType="paperVehicle" speedFactor="0.89" vaporized=""/>
    <tripinfo id="6.11" depart="84.00" departLane="N1A1_0" departPos="5.10" departSpeed="0.00" departDelay="1.00" arrival="386.00" arrivalLane="B3E2_0" arrivalPos="496.00" arrivalSpeed="8.95" duration="302.00" routeLength="2495.93" waitingTime="22.00" waitingCount="2" stopTime="0.00" timeLoss="51.24" rerouteNo="0" devices="tripinfo_6.11" vType="paperVehicle" speedFactor="0.83" vaporized=""/>
    <tripinfo id="6.12" depart="90.00" departLane="N1A1_0" departPos="5.10" departSpeed="0.00" departDelay="0.00" arrival="388.00" arrivalLane="B3E2_0" arrivalPos="496.00" arrivalSpeed="9.25" duration="298.00" routeLength="2495.93" waitingTime="13.00" waitingCount="2" stopTime="0.00" timeLoss="47.37" rerouteNo="0" devices="tripinfo_6.12" vType="paperVehicle" speedFactor="0.87" vaporized=""/>
    <tripinfo id="6.13" depart="95.00" departLane="N1A1_0" departPos="5.10" departSpeed="0.00" departDelay="0.00" arrival="390.00" arrivalLane="B3E2_0" arrivalPos="496.00" arrivalSpeed="9.93" duration="295.00" routeLength="2495.93" waitingTime="10.00" waitingCount="2" stopTime="0.00" timeLoss="44.50" rerouteNo="0" devices="tripinfo_6.13" vType="paperVehicle" speedFactor="0.92" vaporized=""/>
    <tripinfo id="6.14" depart="100.00" departLane="N1A1_0" departPos="5.10" departSpeed="0.00" departDelay="0.00" arrival="392.00" arrivalLane="B3E2_0" arrivalPos="496.00" arrivalSpeed="9.33" duration="292.00" routeLength="2495.93" waitingTime="6.00" waitingCount="2" stopTime="0.00" timeLoss="41.56" rerouteNo="0" devices="tripinfo_6.14" vType="paperVehicle" speedFactor="0.95" vaporized=""/>
    <tripinfo id="6.15" depart="109.00" departLane="N1A1_0" departPos="5.10" departSpeed="0.00" departDelay="0.00" arrival="395.00" arrivalLane="B3E2_0" arrivalPos="496.00" arrivalSpeed="9.26" duration="286.00" routeLength="2495.93" waitingTime="0.00" waitingCount="0" stopTime="0.00" timeLoss="35.39" rerouteNo="0" devices="tripinfo_6.15" vType="paperVehicle" speedFactor="1.18" vaporized=""/>
    <tripinfo id="6.16" depart="119.00" departLane="N1A1_0" departPos="5.10" departSpeed="0.00" departDelay="0.00" arrival="397.00" arrivalLane="B3E2_0" arrivalPos="496.00" arrivalSpeed="9.18" duration="278.00" routeLength="2495.93" waitingTime="0.00" waitingCount="0" stopTime="0.00" timeLoss="27.41" rerouteNo="0" devices="tripinfo_6.16" vType="paperVehicle" speedFactor="1.15" vaporized=""/>
    <tripinfo id="6.17" depart="128.00" departLane="N1A1_0" departPos="5.10" departSpeed="0.00" departDelay="0.00" arrival="399.00" arrivalLane="B3E2_0" arrivalPos="496.00" arrivalSpeed="9.52" duration="271.00" routeLength="2495.93" waitingTime="0.00" waitingCount="0" stopTime="0.00" timeLoss="20.39" rerouteNo="0" devices="tripinfo_6.17" vType="paperVehicle" speedFactor="1.17" vaporized=""/>
    <tripinfo id="6.18" depart="131.00" departLane="N1A1_0" departPos="5.10" departSpeed="0.00" departDelay="0.00" arrival="402.00" arrivalLane="B3E2_0" arrivalPos="496.00" arrivalSpeed="9.10" duration="271.00" routeLength="2495.93" waitingTime="0.00" waitingCount="0" stopTime="0.00" timeLoss="20.57" rerouteNo="0" devices="tripinfo_6.18" vType="paperVehicle" speedFactor="0.99" vaporized=""/>
    <tripinfo id="2.3" depart="218.00" departLane="N2A2_0" departPos="5.10" departSpeed="0.00" departDelay="0.00" arrival="404.00" arrivalLane="B2S2_0" arrivalPos="492.80" arrivalSpeed="9.53" duration="186.00" routeLength="1494.90" waitingTime="12.00" waitingCount="2" stopTime="0.00" timeLoss="36.10" rerouteNo="0" devices="tripinfo_2.3" vType="paperVehicle" speedFactor="1.14" vaporized=""/>
    <tripinfo id="2.4" depart="241.00" departLane="N2A2_0" departPos="5.10" departSpeed="0.00" departDelay="0.00" arrival="406.00" arrivalLane="B2S2_0" arrivalPos="492.80" arrivalSpeed="9.05" duration="165.00" routeLength="1494.90" waitingTime="0.00" waitingCount="0" stopTime="0.00" timeLoss="15.24" rerouteNo="0" devices="tripinfo_2.4" vType="paperVehicle" speedFactor="1.12" vaporized=""/>
    <tripinfo id="5.6" depart="186.00" departLane="W2B1_0" departPos="5.10" departSpeed="0.00" departDelay="0.00" arrival="408.00" arrivalLane="B3E2_0" arrivalPos="496.00" arrivalSpeed="8.70" duration="222.00" routeLength="1994.90" waitingTime="0.00" waitingCount="0" stopTime="0.00" timeLoss="21.84" rerouteNo="0" devices="tripinfo_5.6" vType="paperVehicle" speedFactor="0.85" vaporized=""/>
    <tripinfo id="2.5" depart="259.00" departLane="N2A2_0" departPos="5.10" departSpeed="0.00" departDelay="0.00" arrival="422.00" arrivalLane="B2S2_0" arrivalPos="492.80" arrivalSpeed="9.67" duration="163.00" routeLength="1494.90" waitingTime="0.00" waitingCount="0" stopTime="0.00" timeLoss="13.11" rerouteNo="0" devices="tripinfo_2.5" vType="paperVehicle" speedFactor="1.04" vaporized=""/>
    <tripinfo id="3.3" depart="251.00" departLane="N3A3_0" departPos="5.10" departSpeed="0.00" departDelay="0.00" arrival="432.00" arrivalLane="B3S3_0" arrivalPos="492.80" arrivalSpeed="9.39" duration="181.00" routeLength="1494.90" waitingTime="15.00" waitingCount="1" stopTime="0.00" timeLoss="31.06" rerouteNo="0" devices="tripinfo_3.3" vType="paperVehicle" speedFactor="0.88" vaporized=""/>
    <tripinfo id="3.4" depart="266.00" departLane="N3A3_0" departPos="5.10" departSpeed="0.00" departDelay="0.00" arrival="435.00" arrivalLane="B3S3_0" arrivalPos="492.80" arrivalSpeed="9.08" duration="169.00" routeLength="1494.90" waitingTime="0.00" waitingCount="0" stopTime="0.00" timeLoss="19.40" rerouteNo="0" devices="tripinfo_3.4" vType="paperVehicle" speedFactor="1.02" vaporized=""/>
    <tripinfo id="3.5" depart="274.00" departLane="N3A3_0" departPos="5.10" departSpeed="0.00" departDelay="0.00" arrival="437.00" arrivalLane="B3S3_0" arrivalPos="492.80" arrivalSpeed="9.67" duration="163.00" routeLength="1494.90" waitingTime="0.00" waitingCount="0" stopTime="0.00" timeLoss="13.38" rerouteNo="0" devices="tripinfo_3.5" vType="paperVehicle" speedFactor="0.97" vaporized=""/>
    <tripinfo id="5.7" depart="204.00" departLane="W2B1_0" departPos="5.10" departSpeed="0.00" departDelay="0.00" arrival="445.00" arrivalLane="B3E2_0" arrivalPos="496.00" arrivalSpeed="9.88" duration="241.00" routeLength="1994.90" waitingTime="22.00" waitingCount="1" stopTime="0.00" timeLoss="41.48" rerouteNo="0" devices="tripinfo_5.7" vType="paperVehicle" speedFactor="1.10" vaporized=""/>
    <tripinfo id="6.19" depart="134.00" departLane="N1A1_0" departPos="5.10" departSpeed="0.00" departDelay="2.00" arrival="448.00" arrivalLane="B3E2_0" arrivalPos="496.00" arrivalSpeed="9.03" duration="314.00" routeLength="2495.93" waitingTime="34.00" waitingCount="2" stopTime="0.00" timeLoss="63.49" rerouteNo="0" devices="tripinfo_6.19" vType="paperVehicle" speedFactor="1.02" vaporized=""/>
    <tripinfo id="6.20" depart="137.00" departLane="N1A1_0" departPos="5.10" departSpeed="0.00" departDelay="2.00" arrival="450.00" arrivalLane="B3E2_0" arrivalPos="496.00" arrivalSpeed="8.86" duration="313.00" routeLength="2495.93" waitingTime="31.00" waitingCount="2" stopTime="0.00" timeLoss="62.58" rerouteNo="0" devices="tripinfo_6.20" vType="paperVehicle" speedFactor="0.97" vaporized=""/>
    <tripinfo id="6.21" depart="140.00" departLane="N1A1_0" departPos="5.10" departSpeed="0.00" departDelay="1.00" arrival="452.00" arrivalLane="B3E2_0" arrivalPos="496.00" arrivalSpeed="9.32" duration="312.00" routeLength="2495.93" waitingTime="28.00" waitingCount="2" stopTime="0.00" timeLoss="62.07" rerouteNo="0" devices="tripinfo_6.21" vType="paperVehicle" speedFactor="1.18" vaporized=""/>
    <tripinfo id="6.22" depart="143.00" departLane="N1A1_0" departPos="5.10" departSpeed="0.00" departDelay="2.00" arrival="454.00" arrivalLane="B3E2_0" arrivalPos="496.00" arrivalSpeed="9.40" duration="311.00" routeLength="2495.93" waitingTime="26.00" waitingCount="2" stopTime="0.00" timeLoss="61.02" rerouteNo="0" devices="tripinfo_6.22" vType="paperVehicle" speedFactor="1.10" vaporized=""/>
    <tripinfo id="6.23" depart="146.00" departLane="N1A1_0" departPos="5.10" departSpeed="0.00" departDelay="4.00" arrival="456.00" arrivalLane="B3E2_0" arrivalPos="496.00" arrivalSpeed="9.41" duration="310.00" routeLength="2495.93" waitingTime="26.00" waitingCount="2" stopTime="0.00" timeLoss="59.45" rerouteNo="0" devices="tripinfo_6.23" vType="paperVehicle" speedFactor="0.90" vaporized=""/>
    <tripinfo id="6.24" depart="149.00" departLane="N1A1_0" departPos="5.10" departSpeed="0.00" departDelay="1.00" arrival="458.00" arrivalLane="B3E2_0" arrivalPos="496.00" arrivalSpeed="9.64" duration="309.00" routeLength="2495.93" waitingTime="29.00" waitingCount="2" stopTime="0.00" timeLoss="59.11" rerouteNo="0" devices="tripinfo_6.24" vType="paperVehicle" speedFactor="1.09" vaporized=""/>
    <tripinfo id="6.25" depart="152.00" departLane="N1A1_0" departPos="5.10" departSpeed="0.00" departDelay="3.00" arrival="484.00" arrivalLane="B3E2_0" arrivalPos="496.00" arrivalSpeed="9.10" duration="332.00" routeLength="2495.93" waitingTime="52.00" waitingCount="2" stopTime="0.00" timeLoss="81.22" rerouteNo="0" devices="tripinfo_6.25" vType="paperVehicle" speedFactor="1.04" vaporized=""/>
    <tripinfo id="6.26" depart="158.00" departLane="N1A1_0" departPos="5.10" departSpeed="0.00" departDelay="0.00" arrival="486.00" arrivalLane="B3E2_0" arrivalPos="496.00" arrivalSpeed="9.90" duration="328.00" routeLength="2495.93" waitingTime="46.00" waitingCount="2" stopTime="0.00" timeLoss="77.15" rerouteNo="0" devices="tripinfo_6.26" vType="paperVehicle" speedFactor="1.04" vaporized=""/>
    <tripinfo id="6.27" depart="161.00" departLane="N1A1_0" departPos="5.10" departSpeed="0.00" departDelay="1.00" arrival="488.00" arrivalLane="B3E2_0" arrivalPos="496.00" arrivalSpeed="8.83" duration="327.00" routeLength="2495.93" waitingTime="43.00" waitingCount="2" stopTime="0.00" timeLoss="76.47" rerouteNo="0" devices="tripinfo_6.27" vType="paperVehicle" speedFactor="1.09" vaporized=""/>
    <tripinfo id="6.28" depart="164.00" departLane="N1A1_0" departPos="5.10" departSpeed="0.00" departDelay="1.00" arrival="491.00" arrivalLane="B3E2_0" arrivalPos="496.00" arrivalSpeed="9.84" duration="327.00" routeLength="2495.93" waitingTime="43.00" waitingCount="2" stopTime="0.00" timeLoss="76.55" rerouteNo="0" devices="tripinfo_6.28" vType="paperVehicle" speedFactor="1.00" vaporized=""/>
    <tripinfo id="6.29" depart="167.00" departLane="N1A1_0" departPos="5.10" departSpeed="0.00" departDelay="3.00" arrival="493.00" arrivalLane="B3E2_0" arrivalPos="496.00" arrivalSpeed="8.71" duration="326.00" routeLength="2495.93" waitingTime="41.00" waitingCount="2" stopTime="0.00" timeLoss="75.66" rerouteNo="0" devices="tripinfo_6.29" vType="paperVehicle" speedFactor="0.90" vaporized=""/>
    <tripinfo id="6.30" depart="173.00" departLane="N1A1_0" departPos="5.10" departSpeed="0.00" departDelay="0.00" arrival="495.00" arrivalLane="B3E2_0" arrivalPos="496.00" arrivalSpeed="8.87" duration="322.00" routeLength="2495.93" waitingTime="33.00" waitingCount="2" stopTime="0.00" timeLoss="71.52" rerouteNo="0" devices="tripinfo_6.30" vType="paperVehicle" speedFactor="0.88" vaporized=""/>
    <tripinfo id="6.31" depart="190.00" departLane="N1A1_0" departPos="5.10" departSpeed="0.00" departDelay="0.00" arrival="497.00" arrivalLane="B3E2_0" arrivalPos="496.00" arrivalSpeed="8.83" duration="307.00" routeLength="2495.93" waitingTime="20.00" waitingCount="1" stopTime="0.00" timeLoss="56.44" rerouteNo="0" devices="tripinfo_6.31" vType="paperVehicle" speedFactor="0.85" vaporized=""/>
    <tripinfo id="6.32" depart="198.00" departLane="N1A1_0" departPos="5.10" departSpeed="0.00" departDelay="0.00" arrival="499.00" arrivalLane="B3E2_0" arrivalPos="496.00" arrivalSpeed="9.55" duration="301.00" routeLength="2495.93" waitingTime="19.00" waitingCount="1" stopTime="0.00" timeLoss="50.96" rerouteNo="0" devices="tripinfo_6.32" vType="paperVehicle" speedFactor="1.17" vaporized=""/>
    <tripinfo id="6.33" depart="201.00" departLane="N1A1_0" departPos="5.10" departSpeed="0.00" departDelay="1.00" arrival="502.00" arrivalLane="B3E2_0" arrivalPos="496.00" arrivalSpeed="9.21" duration="301.00" routeLength="2495.93" waitingTime="19.00" waitingCount="1" stopTime="0.00" timeLoss="50.15" rerouteNo="0" devices="tripinfo_6.33" vType="paperVehicle" speedFactor="1.02" vaporized=""/>
    <tripinfo id="6.34" depart="205.00" departLane="N1A1_0" departPos="5.10" departSpeed="0.00" departDelay="0.00" arrival="504.00" arrivalLane="B3E2_0" arrivalPos="496.00" arrivalSpeed="9.73" duration="299.00" routeLength="2495.93" waitingTime="17.00" waitingCount="1" stopTime="0.00" timeLoss="48.65" rerouteNo="0" devices="tripinfo_6.34" vType="paperVehicle" speedFactor="1.00" vaporized=""/>
    <tripinfo id="6.35" depart="215.00" departLane="N1A1_0" departPos="5.10" departSpeed="0.00" departDelay="2.00" arrival="506.00" arrivalLane="B3E2_0" arrivalPos="496.00" arrivalSpeed="9.51" duration="291.00" routeLength="2495.93" waitingTime="10.00" waitingCount="1" stopTime="0.00" timeLoss="40.62" rerouteNo="0" devices="tripinfo_6.35" vType="paperVehicle" speedFactor="0.90" vaporized=""/>
    <tripinfo id="2.6" depart="330.00" departLane="N2A2_0" departPos="5.10" departSpeed="0.00" departDelay="0.00" arrival="506.00" arrivalLane="B2S2_0" arrivalPos="492.80" arrivalSpeed="8.94" duration="176.00" routeLength="1494.90" waitingTime="10.00" waitingCount="1" stopTime="0.00" timeLoss="26.52" rerouteNo="0" devices="tripinfo_2.6" vType="paperVehicle" speedFactor="1.03" vaporized=""/>
    <tripinfo id="6.36" depart="223.00" departLane="N1A1_0" departPos="5.10" departSpeed="0.00" departDelay="0.00" arrival="508.00" arrivalLane="B3E2_0" arrivalPos="496.00" arrivalSpeed="9.95" duration="285.00" routeLength="2495.93" waitingTime="7.00" waitingCount="1" stopTime="0.00" timeLoss="34.74" rerouteNo="0" devices="tripinfo_6.36" vType="paperVehicle" speedFactor="1.02" vaporized=""/>
    <tripinfo id="6.37" depart="226.00" departLane="N1A1_0" departPos="5.10" departSpeed="0.00" departDelay="0.00" arrival="511.00" arrivalLane="B3E2_0" arrivalPos="496.00" arrivalSpeed="9.48" duration="285.00" routeLength="2495.93" waitingTime="6.00" waitingCount="1" stopTime="0.00" timeLoss="34.11" rerouteNo="0" devices="tripinfo_6.37" vType="paperVehicle" speedFactor="0.97" vaporized=""/>
    <tripinfo id="2.7" depart="350.00" departLane="N2A2_0" departPos="5.10" departSpeed="0.00" departDelay="0.00" arrival="512.00" arrivalLane="B2S2_0" arrivalPos="492.80" arrivalSpeed="9.75" duration="162.00" routeLength="1494.90" waitingTime="0.00" waitingCount="0" stopTime="0.00" timeLoss="12.37" rerouteNo="0" devices="tripinfo_2.7" vType="paperVehicle" speedFactor="0.98" vaporized=""/>
    <tripinfo id="3.6" depart="310.00" departLane="N3A3_0" departPos="5.10" departSpeed="0.00" departDelay="0.00" arrival="518.00" arrivalLane="B3S3_0" arrivalPos="492.80" arrivalSpeed="9.04" duration="208.00" routeLength="1494.90" waitingTime="42.00" waitingCount="1" stopTime="0.00" timeLoss="57.67" rerouteNo="0" devices="tripinfo_3.6" vType="paperVehicle" speedFactor="0.98" vaporized=""/>
    <tripinfo id="6.38" depart="236.00" departLane="N1A1_0" departPos="5.10" departSpeed="0.00" departDelay="0.00" arrival="543.00" arrivalLane="B3E2_0" arrivalPos="496.00" arrivalSpeed="9.47" duration="307.00" routeLength="2495.93" waitingTime="27.00" waitingCount="1" stopTime="0.00" timeLoss="56.35" rerouteNo="0" devices="tripinfo_6.38" vType="paperVehicle" speedFactor="1.08" vaporized=""/>
    <tripinfo id="6.39" depart="243.00" departLane="N1A1_0" departPos="5.10" departSpeed="0.00" departDelay="0.00" arrival="545.00" arrivalLane="B3E2_0" arrivalPos="496.00" arrivalSpeed="9.60" duration="302.00" routeLength="2495.93" waitingTime="27.00" waitingCount="1" stopTime="0.00" timeLoss="51.32" rerouteNo="0" devices="tripinfo_6.39" vType="paperVehicle" speedFactor="1.02" vaporized=""/>
    <tripinfo id="4.4" depart="296.00" departLane="W1A1_0" departPos="5.10" departSpeed="0.00" departDelay="0.00" arrival="545.00" arrivalLane="A3E1_0" arrivalPos="496.00" arrivalSpeed="8.92" duration="249.00" routeLength="1994.90" waitingTime="25.00" waitingCount="2" stopTime="0.00" timeLoss="48.63" rerouteNo="0" devices="tripinfo_4.4" vType="paperVehicle" speedFactor="0.98" vaporized=""/>
    <tripinfo id="6.40" depart="247.00" departLane="N1A1_0" departPos="5.10" departSpeed="0.00" departDelay="0.00" arrival="547.00" arrivalLane="B3E2_0" arrivalPos="496.00" arrivalSpeed="8.71" duration="300.00" routeLength="2495.93" waitingTime="25.00" waitingCount="1" stopTime="0.00" timeLoss="49.96" rerouteNo="0" devices="tripinfo_6.40" vType="paperVehicle" speedFactor="0.99" vaporized=""/>
    <tripinfo id="6.41" depart="250.00" departLane="N1A1_0" departPos="5.10" departSpeed="0.00" departDelay="1.00" arrival="549.00" arrivalLane="B3E2_0" arrivalPos="496.00" arrivalSpeed="8.86" duration="299.00" routeLength="2495.93" waitingTime="23.00" waitingCount="1" stopTime="0.00" timeLoss="48.92" rerouteNo="0" devices="tripinfo_6.41" vType="paperVehicle" speedFactor="0.94" vaporized=""/>