<?xml version="1.0" encoding="UTF-8"?>

<!-- generated on 2022-01-25 11:57:02 by Eclipse SUMO sumo Version 1.10.0
<configuration xmlns:xsi="http://www.w3.org/2001/XMLSchema-instance" xsi:noNamespaceSchemaLocation="http://sumo.dlr.de/xsd/sumoConfiguration.xsd">

    <input>
        <net-file value="C:\Users\Marcus\Desktop\Hauptordner\Studium\Masterstudium\3.%20Semester\Projekt_Sim-Opt\Traffic_Simulation\GridNetwork\2x3net.net.xml"/>
        <route-files value="C:\Users\Marcus\Desktop\Hauptordner\Studium\Masterstudium\3.%20Semester\Projekt_Sim-Opt\Traffic_Simulation\GridNetwork\2x3Routes.xml"/>
        <additional-files value="C:\Users\Marcus\Desktop\Hauptordner\Studium\Masterstudium\3.%20Semester\Projekt_Sim-Opt\Traffic_Simulation\GridNetwork\additionals.xml"/>
    </input>

    <output>
        <tripinfo-output value="../tripinfo.xml"/>
        <statistic-output value="../statistics.xml"/>
    </output>

    <report>
        <no-step-log value="true"/>
    </report>

    <traci_server>
        <remote-port value="64315"/>
    </traci_server>

</configuration>
-->

<tripinfos xmlns:xsi="http://www.w3.org/2001/XMLSchema-instance" xsi:noNamespaceSchemaLocation="http://sumo.dlr.de/xsd/tripinfo_file.xsd">
    <tripinfo id="2.0" depart="12.00" departLane="N2A2_0" departPos="5.10" departSpeed="0.00" departDelay="0.00" arrival="175.00" arrivalLane="B2S2_0" arrivalPos="492.80" arrivalSpeed="8.93" duration="163.00" routeLength="1494.90" waitingTime="0.00" waitingCount="0" stopTime="0.00" timeLoss="13.11" rerouteNo="0" devices="tripinfo_2.0" vType="paperVehicle" speedFactor="0.94" vaporized=""/>
    <tripinfo id="1.0" depart="25.00" departLane="N1A1_0" departPos="5.10" departSpeed="0.00" departDelay="0.00" arrival="187.00" arrivalLane="B1S1_0" arrivalPos="492.80" arrivalSpeed="9.55" duration="162.00" routeLength="1494.90" waitingTime="0.00" waitingCount="0" stopTime="0.00" timeLoss="11.79" rerouteNo="0" devices="tripinfo_1.0" vType="paperVehicle" speedFactor="1.08" vaporized=""/>
    <tripinfo id="3.0" depart="46.00" departLane="N3A3_0" departPos="5.10" departSpeed="0.00" departDelay="0.00" arrival="207.00" arrivalLane="B3S3_0" arrivalPos="492.80" arrivalSpeed="9.43" duration="161.00" routeLength="1494.90" waitingTime="0.00" waitingCount="0" stopTime="0.00" timeLoss="11.13" rerouteNo="0" devices="tripinfo_3.0" vType="paperVehicle" speedFactor="0.89" vaporized=""/>
    <tripinfo id="2.1" depart="51.00" departLane="N2A2_0" departPos="5.10" departSpeed="0.00" departDelay="0.00" arrival="213.00" arrivalLane="B2S2_0" arrivalPos="492.80" arrivalSpeed="9.42" duration="162.00" routeLength="1494.90" waitingTime="0.00" waitingCount="0" stopTime="0.00" timeLoss="12.15" rerouteNo="0" devices="tripinfo_2.1" vType="paperVehicle" speedFactor="0.94" vaporized=""/>
    <tripinfo id="1.1" depart="37.00" departLane="N1A1_0" departPos="5.10" departSpeed="0.00" departDelay="0.00" arrival="227.00" arrivalLane="B1S1_0" arrivalPos="492.80" arrivalSpeed="9.52" duration="190.00" routeLength="1494.90" waitingTime="24.00" waitingCount="1" stopTime="0.00" timeLoss="39.60" rerouteNo="0" devices="tripinfo_1.1" vType="paperVehicle" speedFactor="0.83" vaporized=""/>
    <tripinfo id="1.2" depart="57.00" departLane="N1A1_0" departPos="5.10" departSpeed="0.00" departDelay="0.00" arrival="230.00" arrivalLane="B1S1_0" arrivalPos="492.80" arrivalSpeed="9.77" duration="173.00" routeLength="1494.90" waitingTime="7.00" waitingCount="1" stopTime="0.00" timeLoss="23.49" rerouteNo="0" devices="tripinfo_1.2" vType="paperVehicle" speedFactor="1.09" vaporized=""/>
    <tripinfo id="1.3" depart="68.00" departLane="N1A1_0" departPos="5.10" departSpeed="0.00" departDelay="0.00" arrival="236.00" arrivalLane="B1S1_0" arrivalPos="492.80" arrivalSpeed="8.85" duration="168.00" routeLength="1494.90" waitingTime="1.00" waitingCount="1" stopTime="0.00" timeLoss="18.00" rerouteNo="0" devices="tripinfo_1.3" vType="paperVehicle" speedFactor="1.05" vaporized=""/>
    <tripinfo id="5.0" depart="20.00" departLane="W2B1_0" departPos="5.10" departSpeed="0.00" departDelay="0.00" arrival="237.00" arrivalLane="B3E2_0" arrivalPos="496.00" arrivalSpeed="9.88" duration="217.00" routeLength="1994.90" waitingTime="0.00" waitingCount="0" stopTime="0.00" timeLoss="16.59" rerouteNo="0" devices="tripinfo_5.0" vType="paperVehicle" speedFactor="1.01" vaporized=""/>
    <tripinfo id="3.1" depart="97.00" departLane="N3A3_0" departPos="5.10" departSpeed="0.00" departDelay="0.00" arrival="259.00" arrivalLane="B3S3_0" arrivalPos="492.80" arrivalSpeed="8.73" duration="162.00" routeLength="1494.90" waitingTime="0.00" waitingCount="0" stopTime="0.00" timeLoss="11.71" rerouteNo="0" devices="tripinfo_3.1" vType="paperVehicle" speedFactor="1.01" vaporized=""/>
    <tripinfo id="6.0" depart="7.00" departLane="N1A1_0" departPos="5.10" departSpeed="0.00" departDelay="0.00" arrival="286.00" arrivalLane="B3E2_0" arrivalPos="496.00" arrivalSpeed="8.71" duration="279.00" routeLength="2495.93" waitingTime="3.00" waitingCount="1" stopTime="0.00" timeLoss="29.08" rerouteNo="0" devices="tripinfo_6.0" vType="paperVehicle" speedFactor="1.06" vaporized=""/>
    <tripinfo id="6.1" depart="28.00" departLane="N1A1_0" departPos="5.10" departSpeed="0.00" departDelay="2.00" arrival="298.00" arrivalLane="B3E2_0" arrivalPos="496.00" arrivalSpeed="9.18" duration="270.00" routeLength="2495.93" waitingTime="0.00" waitingCount="0" stopTime="0.00" timeLoss="19.90" rerouteNo="0" devices="tripinfo_6.1" vType="paperVehicle" speedFactor="1.03" vaporized=""/>
    <tripinfo id="5.1" depart="76.00" departLane="W2B1_0" departPos="5.10" departSpeed="0.00" departDelay="0.00" arrival="305.00" arrivalLane="B3E2_0" arrivalPos="496.00" arrivalSpeed="9.60" duration="229.00" routeLength="1994.90" waitingTime="10.00" waitingCount="1" stopTime="0.00" timeLoss="29.45" rerouteNo="0" devices="tripinfo_5.1" vType="paperVehicle" speedFactor="0.93" vaporized=""/>
    <tripinfo id="2.2" depart="87.00" departLane="N2A2_0" departPos="5.10" departSpeed="0.00" departDelay="0.00" arrival="311.00" arrivalLane="B2S2_0" arrivalPos="492.80" arrivalSpeed="9.25" duration="224.00" routeLength="1494.90" waitingTime="57.00" waitingCount="1" stopTime="0.00" timeLoss="74.46" rerouteNo="0" devices="tripinfo_2.2" vType="paperVehicle" speedFactor="1.16" vaporized=""/>
    <tripinfo id="2.3" depart="146.00" departLane="N2A2_0" departPos="5.10" departSpeed="0.00" departDelay="0.00" arrival="314.00" arrivalLane="B2S2_0" arrivalPos="492.80" arrivalSpeed="9.10" duration="168.00" routeLength="1494.90" waitingTime="1.00" waitingCount="1" stopTime="0.00" timeLoss="18.05" rerouteNo="0" devices="tripinfo_2.3" vType="paperVehicle" speedFactor="0.97" vaporized=""/>
    <tripinfo id="5.2" depart="104.00" departLane="W2B1_0" departPos="5.10" departSpeed="0.00" departDelay="0.00" arrival="320.00" arrivalLane="B3E2_0" arrivalPos="496.00" arrivalSpeed="9.51" duration="216.00" routeLength="1994.90" waitingTime="0.00" waitingCount="0" stopTime="0.00" timeLoss="16.41" rerouteNo="0" devices="tripinfo_5.2" vType="paperVehicle" speedFactor="0.89" vaporized=""/>
    <tripinfo id="5.3" depart="110.00" departLane="W2B1_0" departPos="5.10" departSpeed="0.00" departDelay="0.00" arrival="325.00" arrivalLane="B3E2_0" arrivalPos="496.00" arrivalSpeed="9.37" duration="215.00" routeLength="1994.90" waitingTime="0.00" waitingCount="0" stopTime="0.00" timeLoss="15.39" rerouteNo="0" devices="tripinfo_5.3" vType="paperVehicle" speedFactor="0.92" vaporized=""/>
    <tripinfo id="1.4" depart="169.00" departLane="N1A1_0" departPos="5.10" departSpeed="0.00" departDelay="0.00" arrival="335.00" arrivalLane="B1S1_0" arrivalPos="492.80" arrivalSpeed="9.00" duration="166.00" routeLength="1494.90" waitingTime="0.00" waitingCount="0" stopTime="0.00" timeLoss="15.79" rerouteNo="0" devices="tripinfo_1.4" vType="paperVehicle" speedFactor="1.09" vaporized=""/>
    <tripinfo id="6.2" depart="44.00" departLane="N1A1_0" departPos="5.10" departSpeed="0.00" departDelay="0.00" arrival="336.00" arrivalLane="B3E2_0" arrivalPos="496.00" arrivalSpeed="9.96" duration="292.00" routeLength="2495.93" waitingTime="17.00" waitingCount="1" stopTime="0.00" timeLoss="41.18" rerouteNo="0" devices="tripinfo_6.2" vType="paperVehicle" speedFactor="1.05" vaporized=""/>
    <tripinfo id="4.0" depart="55.00" departLane="W1A1_0" departPos="5.10" departSpeed="0.00" departDelay="0.00" arrival="340.00" arrivalLane="A3E1_0" arrivalPos="496.00" arrivalSpeed="8.76" duration="285.00" routeLength="1994.90" waitingTime="67.00" waitingCount="1" stopTime="0.00" timeLoss="84.71" rerouteNo="0" devices="tripinfo_4.0" vType="paperVehicle" speedFactor="0.86" vaporized=""/>
    <tripinfo id="1.5" depart="175.00" departLane="N1A1_0" departPos="5.10" departSpeed="0.00" departDelay="5.00" arrival="340.00" arrivalLane="B1S1_0" arrivalPos="492.80" arrivalSpeed="9.54" duration="165.00" routeLength="1494.90" waitingTime="0.00" waitingCount="0" stopTime="0.00" timeLoss="14.71" rerouteNo="0" devices="tripinfo_1.5" vType="paperVehicle" speedFactor="1.04" vaporized=""/>
    <tripinfo id="6.3" depart="62.00" departLane="N1A1_0" departPos="5.10" departSpeed="0.00" departDelay="0.00" arrival="341.00" arrivalLane="B3E2_0" arrivalPos="496.00" arrivalSpeed="8.89" duration="279.00" routeLength="2495.93" waitingTime="5.00" waitingCount="1" stopTime="0.00" timeLoss="28.40" rerouteNo="0" devices="tripinfo_6.3" vType="paperVehicle" speedFactor="1.03" vaporized=""/>
    <tripinfo id="6.4" depart="71.00" departLane="N1A1_0" departPos="5.10" departSpeed="0.00" departDelay="0.00" arrival="347.00" arrivalLane="B3E2_0" arrivalPos="496.00" arrivalSpeed="9.26" duration="276.00" routeLength="2495.93" waitingTime="0.00" waitingCount="0" stopTime="0.00" timeLoss="25.24" rerouteNo="0" devices="tripinfo_6.4" vType="paperVehicle" speedFactor="1.12" vaporized=""/>
    <tripinfo id="6.5" depart="74.00" departLane="N1A1_0" departPos="5.10" departSpeed="0.00" departDelay="2.00" arrival="349.00" arrivalLane="B3E2_0" arrivalPos="496.00" arrivalSpeed="9.13" duration="275.00" routeLength="2495.93" waitingTime="0.00" waitingCount="0" stopTime="0.00" timeLoss="24.09" rerouteNo="0" devices="tripinfo_6.5" vType="paperVehicle" speedFactor="0.99" vaporized=""/>
    <tripinfo id="6.6" depart="78.00" departLane="N1A1_0" departPos="5.10" departSpeed="0.00" departDelay="0.00" arrival="351.00" arrivalLane="B3E2_0" arrivalPos="496.00" arrivalSpeed="8.91" duration="273.00" routeLength="2495.93" waitingTime="0.00" waitingCount="0" stopTime="0.00" timeLoss="22.24" rerouteNo="0" devices="tripinfo_6.6" vType="paperVehicle" speedFactor="0.88" vaporized=""/>
    <tripinfo id="6.7" depart="81.00" departLane="N1A1_0" departPos="5.10" departSpeed="0.00" departDelay="1.00" arrival="353.00" arrivalLane="B3E2_0" arrivalPos="496.00" arrivalSpeed="9.67" duration="272.00" routeLength="2495.93" waitingTime="0.00" waitingCount="0" stopTime="0.00" timeLoss="21.43" rerouteNo="0" devices="tripinfo_6.7" vType="paperVehicle" speedFactor="0.94" vaporized=""/>
    <tripinfo id="6.8" depart="84.00" departLane="N1A1_0" departPos="5.10" departSpeed="0.00" departDelay="2.00" arrival="356.00" arrivalLane="B3E2_0" arrivalPos="496.00" arrivalSpeed="9.86" duration="272.00" routeLength="2495.93" waitingTime="0.00" waitingCount="0" stopTime="0.00" timeLoss="21.32" rerouteNo="0" devices="tripinfo_6.8" vType="paperVehicle" speedFactor="0.94" vaporized=""/>
    <tripinfo id="6.9" depart="88.00" departLane="N1A1_0" departPos="5.10" departSpeed="0.00" departDelay="0.00" arrival="359.00" arrivalLane="B3E2_0" arrivalPos="496.00" arrivalSpeed="9.14" duration="271.00" routeLength="2495.93" waitingTime="0.00" waitingCount="0" stopTime="0.00" timeLoss="20.26" rerouteNo="0" devices="tripinfo_6.9" vType="paperVehicle" speedFactor="1.02" vaporized=""/>
    <tripinfo id="3.2" depart="174.00" departLane="N3A3_0" departPos="5.10" departSpeed="0.00" departDelay="0.00" arrival="369.00" arrivalLane="B3S3_0" arrivalPos="492.80" arrivalSpeed="8.92" duration="195.00" routeLength="1494.90" waitingTime="28.00" waitingCount="1" stopTime="0.00" timeLoss="45.33" rerouteNo="0" devices="tripinfo_3.2" vType="paperVehicle" speedFactor="0.90" vaporized=""/>
    <tripinfo id="1.6" depart="191.00" departLane="N1A1_0" departPos="5.10" departSpeed="0.00" departDelay="0.00" arrival="374.00" arrivalLane="B1S1_0" arrivalPos="492.80" arrivalSpeed="9.51" duration="183.00" routeLength="1494.90" waitingTime="16.00" waitingCount="1" stopTime="0.00" timeLoss="33.10" rerouteNo="0" devices="tripinfo_1.6" vType="paperVehicle" speedFactor="0.88" vaporized=""/>
    <tripinfo id="2.4" depart="172.00" departLane="N2A2_0" departPos="5.10" departSpeed="0.00" departDelay="0.00" arrival="392.00" arrivalLane="B2S2_0" arrivalPos="492.80" arrivalSpeed="9.72" duration="220.00" routeLength="1494.90" waitingTime="49.00" waitingCount="2" stopTime="0.00" timeLoss="70.37" rerouteNo="0" devices="tripinfo_2.4" vType="paperVehicle" speedFactor="1.00" vaporized=""/>
    <tripinfo id="1.7" depart="203.00" departLane="N1A1_0" departPos="5.10" departSpeed="0.00" departDelay="6.00" arrival="395.00" arrivalLane="B1S1_0" arrivalPos="492.80" arrivalSpeed="9.70" duration="192.00" routeLength="1494.90" waitingTime="21.00" waitingCount="1" stopTime="0.00" timeLoss="41.71" rerouteNo="0" devices="tripinfo_1.7" vType="paperVehicle" speedFactor="1.10" vaporized=""/>
    <tripinfo id="2.5" depart="215.00" departLane="N2A2_0" departPos="5.10" departSpeed="0.00" departDelay="0.00" arrival="395.00" arrivalLane="B2S2_0" arrivalPos="492.80" arrivalSpeed="8.79" duration="180.00" routeLength="1494.90" waitingTime="13.00" waitingCount="1" stopTime="0.00" timeLoss="29.87" rerouteNo="0" devices="tripinfo_2.5" vType="paperVehicle" speedFactor="1.14" vaporized=""/>
    <tripinfo id="6.10" depart="103.00" departLane="N1A1_0" departPos="5.10" departSpeed="0.00" departDelay="0.00" arrival="396.00" arrivalLane="B3E2_0" arrivalPos="496.00" arrivalSpeed="8.78" duration="293.00" routeLength="2495.93" waitingTime="15.00" waitingCount="2" stopTime="0.00" timeLoss="41.90" rerouteNo="0" devices="tripinfo_6.10" vType="paperVehicle" speedFactor="0.98" vaporized=""/>
    <tripinfo id="6.11" depart="106.00" departLane="N1A1_0" departPos="5.10" departSpeed="0.00" departDelay="1.00" arrival="398.00" arrivalLane="B3E2_0" arrivalPos="496.00" arrivalSpeed="9.50" duration="292.00" routeLength="2495.93" waitingTime="11.00" waitingCount="1" stopTime="0.00" timeLoss="40.74" rerouteNo="0" devices="tripinfo_6.11" vType="paperVehicle" speedFactor="0.83" vaporized=""/>
    <tripinfo id="6.12" depart="109.00" departLane="N1A1_0" departPos="5.10" departSpeed="0.00" departDelay="2.00" arrival="400.00" arrivalLane="B3E2_0" arrivalPos="496.00" arrivalSpeed="9.43" duration="291.00" routeLength="2495.93" waitingTime="10.00" waitingCount="1" stopTime="0.00" timeLoss="39.96" rerouteNo="0" devices="tripinfo_6.12" vType="paperVehicle" speedFactor="0.87" vaporized=""/>
    <tripinfo id="6.13" depart="112.00" departLane="N1A1_0" departPos="5.10" departSpeed="0.00" departDelay="2.00" arrival="402.00" arrivalLane="B3E2_0" arrivalPos="496.00" arrivalSpeed="9.96" duration="290.00" routeLength="2495.93" waitingTime="7.00" waitingCount="1" stopTime="0.00" timeLoss="39.21" rerouteNo="0" devices="tripinfo_6.13" vType="paperVehicle" speedFactor="0.95" vaporized=""/>
    <tripinfo id="6.14" depart="115.00" departLane="N1A1_0" departPos="5.10" departSpeed="0.00" departDelay="1.00" arrival="404.00" arrivalLane="B3E2_0" arrivalPos="496.00" arrivalSpeed="8.87" duration="289.00" routeLength="2495.93" waitingTime="7.00" waitingCount="1" stopTime="0.00" timeLoss="39.04" rerouteNo="0" devices="tripinfo_6.14" vType="paperVehicle" speedFactor="1.13" vaporized=""/>
    <tripinfo id="5.4" depart="140.00" departLane="W2B1_0" departPos="5.10" departSpeed="0.00" departDelay="0.00" arrival="406.00" arrivalLane="B3E2_0" arrivalPos="496.00" arrivalSpeed="9.28" duration="266.00" routeLength="1994.90" waitingTime="36.00" waitingCount="2" stopTime="0.00" timeLoss="66.36" rerouteNo="0" devices="tripinfo_5.4" vType="paperVehicle" speedFactor="1.02" vaporized=""/>
    <tripinfo id="2.6" depart="240.00" departLane="N2A2_0" departPos="5.10" departSpeed="0.00" departDelay="0.00" arrival="418.00" arrivalLane="B2S2_0" arrivalPos="492.80" arrivalSpeed="9.28" duration="178.00" routeLength="1494.90" waitingTime="11.00" waitingCount="1" stopTime="0.00" timeLoss="27.79" rerouteNo="0" devices="tripinfo_2.6" vType="paperVehicle" speedFactor="0.99" vaporized=""/>
    <tripinfo id="6.15" depart="118.00" departLane="N1A1_0" departPos="5.10" departSpeed="0.00" departDelay="3.00" arrival="422.00" arrivalLane="B3E2_0" arrivalPos="496.00" arrivalSpeed="9.07" duration="304.00" routeLength="2495.93" waitingTime="29.00" waitingCount="1" stopTime="0.00" timeLoss="53.21" rerouteNo="0" devices="tripinfo_6.15" vType="paperVehicle" speedFactor="0.93" vaporized=""/>
    <tripinfo id="6.16" depart="128.00" departLane="N1A1_0" departPos="5.10" departSpeed="0.00" departDelay="0.00" arrival="424.00" arrivalLane="B3E2_0" arrivalPos="496.00" arrivalSpeed="9.08" duration="296.00" routeLength="2495.93" waitingTime="20.00" waitingCount="1" stopTime="0.00" timeLoss="45.24" rerouteNo="0" devices="tripinfo_6.16" vType="paperVehicle" speedFactor="1.18" vaporized=""/>
    <tripinfo id="1.8" depart="261.00" departLane="N1A1_0" departPos="5.10" departSpeed="0.00" departDelay="4.00" arrival="424.00" arrivalLane="B1S1_0" arrivalPos="492.80" arrivalSpeed="9.84" duration="163.00" routeLength="1494.90" waitingTime="0.00" waitingCount="0" stopTime="0.00" timeLoss="12.76" rerouteNo="0" devices="tripinfo_1.8" vType="paperVehicle" speedFactor="0.91" vaporized=""/>
    <tripinfo id="6.17" depart="131.00" departLane="N1A1_0" departPos="5.10" departSpeed="0.00" departDelay="2.00" arrival="426.00" arrivalLane="B3E2_0" arrivalPos="496.00" arrivalSpeed="9.88" duration="295.00" routeLength="2495.93" waitingTime="19.00" waitingCount="1" stopTime="0.00" timeLoss="44.36" rerouteNo="0" devices="tripinfo_6.17" vType="paperVehicle" speedFactor="1.15" vaporized=""/>
    <tripinfo id="6.18" depart="137.00" departLane="N1A1_0" departPos="5.10" departSpeed="0.00" departDelay="0.00" arrival="428.00" arrivalLane="B3E2_0" arrivalPos="496.00" arrivalSpeed="9.14" duration="291.00" routeLength="2495.93" waitingTime="13.00" waitingCount="1" stopTime="0.00" timeLoss="41.07" rerouteNo="0" devices="tripinfo_6.18" vType="paperVehicle" speedFactor="1.01" vaporized=""/>
    <tripinfo id="6.19" depart="140.00" departLane="N1A1_0" departPos="5.10" departSpeed="0.00" departDelay="2.00" arrival="431.00" arrivalLane="B3E2_0" arrivalPos="496.00" arrivalSpeed="9.52" duration="291.00" routeLength="2495.93" waitingTime="11.00" waitingCount="1" stopTime="0.00" timeLoss="40.62" rerouteNo="0" devices="tripinfo_6.19" vType="paperVehicle" speedFactor="1.17" vaporized=""/>
    <tripinfo id="6.20" depart="143.00" departLane="N1A1_0" departPos="5.10" departSpeed="0.00" departDelay="4.00" arrival="433.00" arrivalLane="B3E2_0" arrivalPos="496.00" arrivalSpeed="9.02" duration="290.00" routeLength="2495.93" waitingTime="11.00" waitingCount="1" stopTime="0.00" timeLoss="39.90" rerouteNo="0" devices="tripinfo_6.20" vType="paperVehicle" speedFactor="0.99" vaporized=""/>
    <tripinfo id="6.21" depart="149.00" departLane="N1A1_0" departPos="5.10" departSpeed="0.00" departDelay="0.00" arrival="435.00" arrivalLane="B3E2_0" arrivalPos="496.00" arrivalSpeed="9.15" duration="286.00" routeLength="2495.93" waitingTime="7.00" waitingCount="1" stopTime="0.00" timeLoss="36.00" rerouteNo="0" devices="tripinfo_6.21" vType="paperVehicle" speedFactor="1.18" vaporized=""/>
    <tripinfo id="6.22" depart="156.00" departLane="N1A1_0" departPos="5.10" departSpeed="0.00" departDelay="0.00" arrival="438.00" arrivalLane="B3E2_0" arrivalPos="496.00" arrivalSpeed="9.42" duration="282.00" routeLength="2495.93" waitingTime="2.00" waitingCount="1" stopTime="0.00" timeLoss="31.71" rerouteNo="0" devices="tripinfo_6.22" vType="paperVehicle" speedFactor="1.10" vaporized=""/>
    <tripinfo id="6.23" depart="164.00" departLane="N1A1_0" departPos="5.10" departSpeed="0.00" departDelay="0.00" arrival="440.00" arrivalLane="B3E2_0" arrivalPos="496.00" arrivalSpeed="9.46" duration="276.00" routeLength="2495.93" waitingTime="0.00" waitingCount="0" stopTime="0.00" timeLoss="25.79" rerouteNo="0" devices="tripinfo_6.23" vType="paperVehicle" speedFactor="1.03" vaporized=""/>
    <tripinfo id="4.1" depart="159.00" departLane="W1A1_0" departPos="5.10" departSpeed="0.00" departDelay="0.00" arrival="448.00" arrivalLane="A3E1_0" arrivalPos="496.00" arrivalSpeed="9.18" duration="289.00" routeLength="1994.90" waitingTime="66.00" waitingCount="2" stopTime="0.00" timeLoss="89.01" rerouteNo="0" devices="tripinfo_4.1" vType="paperVehicle" speedFactor="0.90" vaporized=""/>
    <tripinfo id="4.2" depart="165.00" departLane="W1A1_0" departPos="5.10" departSpeed="0.00" departDelay="0.00" arrival="450.00" arrivalLane="A3E1_0" arrivalPos="496.00" arrivalSpeed="8.93" duration="285.00" routeLength="1994.90" waitingTime="60.00" waitingCount="2" stopTime="0.00" timeLoss="85.16" rerouteNo="0" devices="tripinfo_4.2" vType="paperVehicle" speedFactor="0.96" vaporized=""/>
    <tripinfo id="4.3" depart="192.00" departLane="W1A1_0" departPos="5.10" departSpeed="0.00" departDelay="0.00" arrival="453.00" arrivalLane="A3E1_0" arrivalPos="496.00" arrivalSpeed="8.96" duration="261.00" routeLength="1994.90" waitingTime="32.00" waitingCount="2" stopTime="0.00" timeLoss="60.91" rerouteNo="0" devices="tripinfo_4.3" vType="paperVehicle" speedFactor="0.85" vaporized=""/>
    <tripinfo id="1.9" depart="276.00" departLane="N1A1_0" departPos="5.10" departSpeed="0.00" departDelay="3.00" arrival="466.00" arrivalLane="B1S1_0" arrivalPos="492.80" arrivalSpeed="8.95" duration="190.00" routeLength="1494.90" waitingTime="23.00" waitingCount="1" stopTime="0.00" timeLoss="40.44" rerouteNo="0" devices="tripinfo_1.9" vType="paperVehicle" speedFactor="0.94" vaporized=""/>
    <tripinfo id="1.10" depart="279.00" departLane="N1A1_0" departPos="5.10" departSpeed="0.00" departDelay="2.00" arrival="468.00" arrivalLane="B1S1_0" arrivalPos="492.80" arrivalSpeed="9.79" duration="189.00" routeLength="1494.90" waitingTime="23.00" waitingCount="1" stopTime="0.00" timeLoss="39.39" rerouteNo="0" devices="tripinfo_1.10" vType="paperVehicle" speedFactor="0.98" vaporized=""/>
    <tripinfo id="1.11" depart="311.00" departLane="N1A1_0" departPos="5.10" departSpeed="0.00" departDelay="0.00" arrival="476.00" arrivalLane="B1S1_0" arrivalPos="492.80" arrivalSpeed="8.88" duration="165.00" routeLength="1494.90" waitingTime="0.00" waitingCount="0" stopTime="0.00" timeLoss="14.96" rerouteNo="0" devices="tripinfo_1.11" vType="paperVehicle" speedFactor="1.00" vaporized=""/>
    <tripinfo id="6.24" depart="172.00" departLane="N1A1_0" departPos="5.10" departSpeed="0.00" departDelay="3.00" arrival="480.00" arrivalLane="B3E2_0" arrivalPos="496.00" arrivalSpeed="9.18" duration="308.00" routeLength="2495.93" waitingTime="30.00" waitingCount="1" stopTime="0.00" timeLoss="57.51" rerouteNo="0" devices="tripinfo_6.24" vType="paperVehicle" speedFactor="1.04" vaporized=""/>
    <tripinfo id="2.7" depart="274.00" departLane="N2A2_0" departPos="5.10" departSpeed="0.00" departDelay="0.00" arrival="480.00" arrivalLane="B2S2_0" arrivalPos="492.80" arrivalSpeed="9.50" duration="206.00" routeLength="1494.90" waitingTime="39.00" waitingCount="1" stopTime="0.00" timeLoss="55.58" rerouteNo="0" devices="tripinfo_2.7" vType="paperVehicle" speedFactor="1.06" vaporized=""/>
    <tripinfo id="6.25" depart="178.00" departLane="N1A1_0" departPos="5.10" departSpeed="0.00" departDelay="7.00" arrival="482.00" arrivalLane="B3E2_0" arrivalPos="496.00" arrivalSpeed="9.56" duration="304.00" routeLength="2495.93" waitingTime="28.00" waitingCount="1" stopTime="0.00" timeLoss="53.50" rerouteNo="0" devices="tripinfo_6.25" vType="paperVehicle" speedFactor="1.09" vaporized=""/>
    <tripinfo id="2.8" depart="277.00" departLane="N2A2_0" departPos="5.10" departSpeed="0.00" departDelay="2.00" arrival="482.00" arrivalLane="B2S2_0" arrivalPos="492.80" arrivalSpeed="9.30" duration="205.00" routeLength="1494.90" waitingTime="37.00" waitingCount="1" stopTime="0.00" timeLoss="55.01" rerouteNo="0" devices="tripinfo_2.8" vType="paperVehicle" speedFactor="0.96" vaporized=""/>
    <tripinfo id="5.5" depart="223.00" departLane="W2B1_0" departPos="5.10" departSpeed="0.00" departDelay="0.00" arrival="484.00" arrivalLane="B3E2_0" arrivalPos="496.00" arrivalSpeed="9.10" duration="261.00" routeLength="1994.90" waitingTime="36.00" waitingCount="2" stopTime="0.00" timeLoss="61.13" rerouteNo="0" devices="tripinfo_5.5" vType="paperVehicle" speedFactor="0.97" vaporized=""/>
    <tripinfo id="5.6" depart="238.00" departLane="W2B1_0" departPos="5.10" departSpeed="0.00" departDelay="0.00" arrival="486.00" arrivalLane="B3E2_0" arrivalPos="496.00" arrivalSpeed="9.30" duration="248.00" routeLength="1994.90" waitingTime="21.00" waitingCount="2" stopTime="0.00" timeLoss="48.31" rerouteNo="0" devices="tripinfo_5.6" vType="paperVehicle" speedFactor="1.02" vaporized=""/>
    <tripinfo id="6.26" depart="194.00" departLane="N1A1_0" departPos="5.10" departSpeed="0.00" departDelay="3.00" arrival="495.00" arrivalLane="B3E2_0" arrivalPos="496.00" arrivalSpeed="9.83" duration="301.00" routeLength="2495.93" waitingTime="26.00" waitingCount="1" stopTime="0.00" timeLoss="50.16" rerouteNo="0" devices="tripinfo_6.26" vType="paperVehicle" speedFactor="0.85" vaporized=""/>
    <tripinfo id="1.12" depart="339.00" departLane="N1A1_0" departPos="5.10" departSpeed="0.00" departDelay="1.00" arrival="501.00" arrivalLane="B1S1_0" arrivalPos="492.80" arrivalSpeed="9.48" duration="162.00" routeLength="1494.90" waitingTime="0.00" waitingCount="0" stopTime="0.00" timeLoss="12.47" rerouteNo="0" devices="tripinfo_1.12" vType="paperVehicle" speedFactor="1.02" vaporized=""/>
    <tripinfo id="3.3" depart="301.00" departLane="N3A3_0" departPos="5.10" departSpeed="0.00" departDelay="0.00" arrival="502.00" arrivalLane="B3S3_0" arrivalPos="492.80" arrivalSpeed="9.66" duration="201.00" routeLength="1494.90" waitingTime="35.00" waitingCount="1" stopTime="0.00" timeLoss="50.81" rerouteNo="0" devices="tripinfo_3.3" vType="paperVehicle" speedFactor="1.01" vaporized=""/>
    <tripinfo id="3.4" depart="319.00" departLane="N3A3_0" departPos="5.10" departSpeed="0.00" departDelay="0.00" arrival="504.00" arrivalLane="B3S3_0" arrivalPos="492.80" arrivalSpeed="9.55" duration="185.00" routeLength="1494.90" waitingTime="17.00" waitingCount="1" stopTime="0.00" timeLoss="34.86" rerouteNo="0" devices="tripinfo_3.4" vType="paperVehicle" speedFactor="0.97" vaporized=""/>
    <tripinfo id="1.13" depart="345.00" departLane="N1A1_0" departPos="5.10" departSpeed="0.00" departDelay="5.00" arrival="508.00" arrivalLane="B1S1_0" arrivalPos="492.80" arrivalSpeed="9.44" duration="163.00" routeLength="1494.90" waitingTime="0.00" waitingCount="0" stopTime="0.00" timeLoss="12.81" rerouteNo="0" devices="tripinfo_1.13" vType="paperVehicle" speedFactor="0.83" vaporized=""/>
    <tripinfo id="3.5" depart="326.00" departLane="N3A3_0" departPos="5.10" departSpeed="0.00" departDelay="0.00" arrival="519.00" arrivalLane="B3S3_0" arrivalPos="492.80" arrivalSpeed="9.51" duration="193.00" routeLength="1494.90" waitingTime="28.00" waitingCount="1" stopTime="0.00" timeLoss="42.77" rerouteNo="0" devices="tripinfo_3.5" vType="paperVehicle" speedFactor="1.15" vaporized=""/>
    <tripinfo id="6.27" depart="197.00" departLane="N1A1_0" departPos="5.10" departSpeed="0.00" departDelay="3.00" arrival="527.00" arrivalLane="B3E2_0" arrivalPos="496.00" arrivalSpeed="9.47" duration="330.00" routeLength="2495.93" waitingTime="49.00" waitingCount="2" stopTime="0.00" timeLoss="79.74" rerouteNo="0" devices="tripinfo_6.27" vType="paperVehicle" speedFactor="1.17" vaporized=""/>
    <tripinfo id="6.28" depart="200.00" departLane="N1A1_0" departPos="5.10" departSpeed="0.00" departDelay="4.00" arrival="529.00" arrivalLane="B3E2_0" arrivalPos="496.00" arrivalSpeed="9.59" duration="329.00" routeLength="2495.93" waitingTime="47.00" waitingCount="2" stopTime="0.00" timeLoss="78.94" rerouteNo="0" devices="tripinfo_6.28" vType="paperVehicle" speedFactor="1.02" vaporized=""/>
    <tripinfo id="6.29" depart="206.00" departLane="N1A1_0" departPos="5.10" departSpeed="0.00" departDelay="5.00" arrival="532.00" arrivalLane="B3E2_0" arrivalPos="496.00" arrivalSpeed="9.96" duration="326.00" routeLength="2495.93" waitingTime="42.00" waitingCount="2" stopTime="0.00" timeLoss="75.18" rerouteNo="0" devices="tripinfo_6.29" vType="paperVehicle" speedFactor="1.00" vaporized=""/>
    <tripinfo id="6.30" depart="209.00" departLane="N1A1_0" departPos="5.10" departSpeed="0.00" departDelay="0.00" arrival="534.00" arrivalLane="B3E2_0" arrivalPos="496.00" arrivalSpeed="8.98" duration="325.00" routeLength="2495.93" waitingTime="38.00" waitingCount="2" stopTime="0.00" timeLoss="73.99" rerouteNo="0" devices="tripinfo_6.30" vType="paperVehicle" speedFactor="1.00" vaporized=""/>
    <tripinfo id="6.31" depart="212.00" departLane="N1A1_0" departPos="5.10" departSpeed="0.00" departDelay="2.00" arrival="536.00" arrivalLane="B3E2_0" arrivalPos="496.00" arrivalSpeed="9.75" duration="324.00" routeLength="2495.93" waitingTime="36.00" waitingCount="2" stopTime="0.00" timeLoss="73.24" rerouteNo="0" devices="tripinfo_6.31" vType="paperVehicle" speedFactor="0.90" vaporized=""/>
    <tripinfo id="6.32" depart="216.00" departLane="N1A1_0" departPos="5.10" departSpeed="0.00" departDelay="0.00" arrival="538.00" arrivalLane="B3E2_0" arrivalPos="496.00" arrivalSpeed="9.58" duration="322.00" routeLength="2495.93" waitingTime="34.00" waitingCount="2" stopTime="0.00" timeLoss="71.13" rerouteNo="0" devices="tripinfo_6.32" vType="paperVehicle" speedFactor="1.02" vaporized=""/>