<?xml version="1.0" encoding="UTF-8"?>

<!-- generated on 2022-01-19 12:57:15 by Eclipse SUMO sumo Version 1.10.0
<configuration xmlns:xsi="http://www.w3.org/2001/XMLSchema-instance" xsi:noNamespaceSchemaLocation="http://sumo.dlr.de/xsd/sumoConfiguration.xsd">

    <input>
        <net-file value="C:\Users\Marcus\Desktop\Hauptordner\Studium\Masterstudium\3.%20Semester\Projekt_Sim-Opt\Traffic_Simulation\2X3GridNetwork\2x3net.net.xml"/>
        <route-files value="C:\Users\Marcus\Desktop\Hauptordner\Studium\Masterstudium\3.%20Semester\Projekt_Sim-Opt\Traffic_Simulation\2X3GridNetwork\2x3Routes.xml"/>
        <additional-files value="C:\Users\Marcus\Desktop\Hauptordner\Studium\Masterstudium\3.%20Semester\Projekt_Sim-Opt\Traffic_Simulation\2X3GridNetwork\additionals.xml"/>
    </input>

    <output>
        <tripinfo-output value="tripinfo.xml"/>
        <statistic-output value="statistics.xml"/>
    </output>

    <report>
        <no-step-log value="true"/>
    </report>

    <traci_server>
        <remote-port value="55522"/>
    </traci_server>

</configuration>
-->

<tripinfos xmlns:xsi="http://www.w3.org/2001/XMLSchema-instance" xsi:noNamespaceSchemaLocation="http://sumo.dlr.de/xsd/tripinfo_file.xsd">
    <tripinfo id="3.0" depart="82.00" departLane="N3A3_0" departPos="5.10" departSpeed="0.00" departDelay="0.00" arrival="255.00" arrivalLane="B3S3_0" arrivalPos="492.80" arrivalSpeed="9.84" duration="173.00" routeLength="1494.90" waitingTime="3.00" waitingCount="2" stopTime="0.00" timeLoss="23.12" rerouteNo="0" devices="tripinfo_3.0" vType="paperVehicle" speedFactor="0.94" vaporized=""/>
    <tripinfo id="5.0" depart="23.00" departLane="W2B1_0" departPos="5.10" departSpeed="0.00" departDelay="0.00" arrival="266.00" arrivalLane="B3E2_0" arrivalPos="496.00" arrivalSpeed="8.88" duration="243.00" routeLength="1994.90" waitingTime="15.00" waitingCount="3" stopTime="0.00" timeLoss="42.69" rerouteNo="0" devices="tripinfo_5.0" vType="paperVehicle" speedFactor="1.08" vaporized=""/>
    <tripinfo id="5.1" depart="33.00" departLane="W2B1_0" departPos="5.10" departSpeed="0.00" departDelay="0.00" arrival="268.00" arrivalLane="B3E2_0" arrivalPos="496.00" arrivalSpeed="9.03" duration="235.00" routeLength="1994.90" waitingTime="4.00" waitingCount="3" stopTime="0.00" timeLoss="35.50" rerouteNo="0" devices="tripinfo_5.1" vType="paperVehicle" speedFactor="1.03" vaporized=""/>
    <tripinfo id="6.0" depart="10.00" departLane="N1A1_0" departPos="5.10" departSpeed="0.00" departDelay="0.00" arrival="286.00" arrivalLane="B3E2_0" arrivalPos="496.00" arrivalSpeed="9.70" duration="276.00" routeLength="2495.93" waitingTime="0.00" waitingCount="0" stopTime="0.00" timeLoss="25.30" rerouteNo="0" devices="tripinfo_6.0" vType="paperVehicle" speedFactor="1.06" vaporized=""/>
    <tripinfo id="4.0" depart="59.00" departLane="W1A1_0" departPos="5.10" departSpeed="0.00" departDelay="0.00" arrival="286.00" arrivalLane="A3E1_0" arrivalPos="496.00" arrivalSpeed="9.53" duration="227.00" routeLength="1994.90" waitingTime="5.00" waitingCount="2" stopTime="0.00" timeLoss="26.86" rerouteNo="0" devices="tripinfo_4.0" vType="paperVehicle" speedFactor="0.86" vaporized=""/>
    <tripinfo id="3.1" depart="118.00" departLane="N3A3_0" departPos="5.10" departSpeed="0.00" departDelay="0.00" arrival="295.00" arrivalLane="B3S3_0" arrivalPos="492.80" arrivalSpeed="9.29" duration="177.00" routeLength="1494.90" waitingTime="6.00" waitingCount="2" stopTime="0.00" timeLoss="27.51" rerouteNo="0" devices="tripinfo_3.1" vType="paperVehicle" speedFactor="1.13" vaporized=""/>
    <tripinfo id="6.1" depart="13.00" departLane="N1A1_0" departPos="5.10" departSpeed="0.00" departDelay="0.00" arrival="305.00" arrivalLane="B3E2_0" arrivalPos="496.00" arrivalSpeed="9.04" duration="292.00" routeLength="2495.93" waitingTime="11.00" waitingCount="2" stopTime="0.00" timeLoss="41.93" rerouteNo="0" devices="tripinfo_6.1" vType="paperVehicle" speedFactor="0.94" vaporized=""/>
    <tripinfo id="4.1" depart="71.00" departLane="W1A1_0" departPos="5.10" departSpeed="0.00" departDelay="0.00" arrival="305.00" arrivalLane="A3E1_0" arrivalPos="496.00" arrivalSpeed="9.51" duration="234.00" routeLength="1994.90" waitingTime="8.00" waitingCount="3" stopTime="0.00" timeLoss="34.38" rerouteNo="0" devices="tripinfo_4.1" vType="paperVehicle" speedFactor="1.05" vaporized=""/>
    <tripinfo id="3.2" depart="137.00" departLane="N3A3_0" departPos="5.10" departSpeed="0.00" departDelay="0.00" arrival="315.00" arrivalLane="B3S3_0" arrivalPos="492.80" arrivalSpeed="9.98" duration="178.00" routeLength="1494.90" waitingTime="9.00" waitingCount="2" stopTime="0.00" timeLoss="28.31" rerouteNo="0" devices="tripinfo_3.2" vType="paperVehicle" speedFactor="0.99" vaporized=""/>
    <tripinfo id="3.3" depart="140.00" departLane="N3A3_0" departPos="5.10" departSpeed="0.00" departDelay="0.00" arrival="318.00" arrivalLane="B3S3_0" arrivalPos="492.80" arrivalSpeed="9.82" duration="178.00" routeLength="1494.90" waitingTime="3.00" waitingCount="1" stopTime="0.00" timeLoss="27.73" rerouteNo="0" devices="tripinfo_3.3" vType="paperVehicle" speedFactor="1.02" vaporized=""/>
    <tripinfo id="6.2" depart="19.00" departLane="N1A1_0" departPos="5.10" departSpeed="0.00" departDelay="0.00" arrival="326.00" arrivalLane="B3E2_0" arrivalPos="496.00" arrivalSpeed="9.17" duration="307.00" routeLength="2495.93" waitingTime="18.00" waitingCount="4" stopTime="0.00" timeLoss="56.37" rerouteNo="0" devices="tripinfo_6.2" vType="paperVehicle" speedFactor="1.01" vaporized=""/>
    <tripinfo id="6.3" depart="37.00" departLane="N1A1_0" departPos="5.10" departSpeed="0.00" departDelay="0.00" arrival="328.00" arrivalLane="B3E2_0" arrivalPos="496.00" arrivalSpeed="9.82" duration="291.00" routeLength="2495.93" waitingTime="11.00" waitingCount="2" stopTime="0.00" timeLoss="40.34" rerouteNo="0" devices="tripinfo_6.3" vType="paperVehicle" speedFactor="0.83" vaporized=""/>
    <tripinfo id="6.4" depart="40.00" departLane="N1A1_0" departPos="5.10" departSpeed="0.00" departDelay="0.00" arrival="345.00" arrivalLane="B3E2_0" arrivalPos="496.00" arrivalSpeed="9.20" duration="305.00" routeLength="2495.93" waitingTime="16.00" waitingCount="4" stopTime="0.00" timeLoss="54.75" rerouteNo="0" devices="tripinfo_6.4" vType="paperVehicle" speedFactor="1.05" vaporized=""/>
    <tripinfo id="4.2" depart="107.00" departLane="W1A1_0" departPos="5.10" departSpeed="0.00" departDelay="0.00" arrival="346.00" arrivalLane="A3E1_0" arrivalPos="496.00" arrivalSpeed="8.93" duration="239.00" routeLength="1994.90" waitingTime="9.00" waitingCount="3" stopTime="0.00" timeLoss="38.86" rerouteNo="0" devices="tripinfo_4.2" vType="paperVehicle" speedFactor="0.95" vaporized=""/>
    <tripinfo id="5.2" depart="105.00" departLane="W2B1_0" departPos="5.10" departSpeed="0.00" departDelay="0.00" arrival="348.00" arrivalLane="B3E2_0" arrivalPos="496.00" arrivalSpeed="9.44" duration="243.00" routeLength="1994.90" waitingTime="12.00" waitingCount="3" stopTime="0.00" timeLoss="43.40" rerouteNo="0" devices="tripinfo_5.2" vType="paperVehicle" speedFactor="0.87" vaporized=""/>
    <tripinfo id="4.3" depart="120.00" departLane="W1A1_0" departPos="5.10" departSpeed="0.00" departDelay="0.00" arrival="348.00" arrivalLane="A3E1_0" arrivalPos="496.00" arrivalSpeed="8.79" duration="228.00" routeLength="1994.90" waitingTime="2.00" waitingCount="2" stopTime="0.00" timeLoss="28.25" rerouteNo="0" devices="tripinfo_4.3" vType="paperVehicle" speedFactor="1.18" vaporized=""/>
    <tripinfo id="2.0" depart="186.00" departLane="N2A2_0" departPos="5.10" departSpeed="0.00" departDelay="0.00" arrival="356.00" arrivalLane="B2S2_0" arrivalPos="492.80" arrivalSpeed="9.17" duration="170.00" routeLength="1494.90" waitingTime="2.00" waitingCount="1" stopTime="0.00" timeLoss="19.63" rerouteNo="0" devices="tripinfo_2.0" vType="paperVehicle" speedFactor="0.88" vaporized=""/>
    <tripinfo id="6.5" depart="46.00" departLane="N1A1_0" departPos="5.10" departSpeed="0.00" departDelay="0.00" arrival="366.00" arrivalLane="B3E2_0" arrivalPos="496.00" arrivalSpeed="9.86" duration="320.00" routeLength="2495.93" waitingTime="27.00" waitingCount="4" stopTime="0.00" timeLoss="69.75" rerouteNo="0" devices="tripinfo_6.5" vType="paperVehicle" speedFactor="0.89" vaporized=""/>
    <tripinfo id="6.6" depart="58.00" departLane="N1A1_0" departPos="5.10" departSpeed="0.00" departDelay="0.00" arrival="369.00" arrivalLane="B3E2_0" arrivalPos="496.00" arrivalSpeed="9.08" duration="311.00" routeLength="2495.93" waitingTime="19.00" waitingCount="4" stopTime="0.00" timeLoss="59.81" rerouteNo="0" devices="tripinfo_6.6" vType="paperVehicle" speedFactor="0.94" vaporized=""/>
    <tripinfo id="3.4" depart="196.00" departLane="N3A3_0" departPos="5.10" departSpeed="0.00" departDelay="0.00" arrival="375.00" arrivalLane="B3S3_0" arrivalPos="492.80" arrivalSpeed="9.70" duration="179.00" routeLength="1494.90" waitingTime="6.00" waitingCount="2" stopTime="0.00" timeLoss="29.38" rerouteNo="0" devices="tripinfo_3.4" vType="paperVehicle" speedFactor="1.10" vaporized=""/>
    <tripinfo id="6.7" depart="62.00" departLane="N1A1_0" departPos="5.10" departSpeed="0.00" departDelay="0.00" arrival="386.00" arrivalLane="B3E2_0" arrivalPos="496.00" arrivalSpeed="9.01" duration="324.00" routeLength="2495.93" waitingTime="33.00" waitingCount="5" stopTime="0.00" timeLoss="73.42" rerouteNo="0" devices="tripinfo_6.7" vType="paperVehicle" speedFactor="1.09" vaporized=""/>
    <tripinfo id="6.8" depart="65.00" departLane="N1A1_0" departPos="5.10" departSpeed="0.00" departDelay="1.00" arrival="388.00" arrivalLane="B3E2_0" arrivalPos="496.00" arrivalSpeed="9.13" duration="323.00" routeLength="2495.93" waitingTime="24.00" waitingCount="4" stopTime="0.00" timeLoss="72.31" rerouteNo="0" devices="tripinfo_6.8" vType="paperVehicle" speedFactor="1.03" vaporized=""/>
    <tripinfo id="6.9" depart="74.00" departLane="N1A1_0" departPos="5.10" departSpeed="0.00" departDelay="0.00" arrival="405.00" arrivalLane="B3E2_0" arrivalPos="496.00" arrivalSpeed="9.28" duration="331.00" routeLength="2495.93" waitingTime="42.00" waitingCount="5" stopTime="0.00" timeLoss="80.89" rerouteNo="0" devices="tripinfo_6.9" vType="paperVehicle" speedFactor="1.12" vaporized=""/>
    <tripinfo id="6.10" depart="77.00" departLane="N1A1_0" departPos="5.10" departSpeed="0.00" departDelay="2.00" arrival="408.00" arrivalLane="B3E2_0" arrivalPos="496.00" arrivalSpeed="9.80" duration="331.00" routeLength="2495.93" waitingTime="37.00" waitingCount="5" stopTime="0.00" timeLoss="80.43" rerouteNo="0" devices="tripinfo_6.10" vType="paperVehicle" speedFactor="0.99" vaporized=""/>
    <tripinfo id="1.0" depart="131.00" departLane="N1A1_0" departPos="5.10" departSpeed="0.00" departDelay="0.00" arrival="418.00" arrivalLane="B1S1_0" arrivalPos="492.80" arrivalSpeed="8.86" duration="287.00" routeLength="1494.90" waitingTime="54.00" waitingCount="8" stopTime="0.00" timeLoss="136.66" rerouteNo="0" devices="tripinfo_1.0" vType="paperVehicle" speedFactor="1.17" vaporized=""/>
    <tripinfo id="6.11" depart="80.00" departLane="N1A1_0" departPos="5.10" departSpeed="0.00" departDelay="4.00" arrival="426.00" arrivalLane="B3E2_0" arrivalPos="496.00" arrivalSpeed="8.74" duration="346.00" routeLength="2495.93" waitingTime="51.00" waitingCount="6" stopTime="0.00" timeLoss="95.56" rerouteNo="0" devices="tripinfo_6.11" vType="paperVehicle" speedFactor="0.93" vaporized=""/>
    <tripinfo id="4.4" depart="191.00" departLane="W1A1_0" departPos="5.10" departSpeed="0.00" departDelay="0.00" arrival="426.00" arrivalLane="A3E1_0" arrivalPos="496.00" arrivalSpeed="9.18" duration="235.00" routeLength="1994.90" waitingTime="7.00" waitingCount="3" stopTime="0.00" timeLoss="34.98" rerouteNo="0" devices="tripinfo_4.4" vType="paperVehicle" speedFactor="1.02" vaporized=""/>
    <tripinfo id="6.12" depart="83.00" departLane="N1A1_0" departPos="5.10" departSpeed="0.00" departDelay="5.00" arrival="429.00" arrivalLane="B3E2_0" arrivalPos="496.00" arrivalSpeed="8.87" duration="346.00" routeLength="2495.93" waitingTime="43.00" waitingCount="6" stopTime="0.00" timeLoss="95.18" rerouteNo="0" devices="tripinfo_6.12" vType="paperVehicle" speedFactor="0.88" vaporized=""/>
    <tripinfo id="6.13" depart="86.00" departLane="N1A1_0" departPos="5.10" departSpeed="0.00" departDelay="3.00" arrival="446.00" arrivalLane="B3E2_0" arrivalPos="496.00" arrivalSpeed="9.24" duration="360.00" routeLength="2495.93" waitingTime="56.00" waitingCount="7" stopTime="0.00" timeLoss="109.34" rerouteNo="0" devices="tripinfo_6.13" vType="paperVehicle" speedFactor="0.94" vaporized=""/>
    <tripinfo id="6.14" depart="89.00" departLane="N1A1_0" departPos="5.10" departSpeed="0.00" departDelay="5.00" arrival="448.00" arrivalLane="B3E2_0" arrivalPos="496.00" arrivalSpeed="9.45" duration="359.00" routeLength="2495.93" waitingTime="48.00" waitingCount="7" stopTime="0.00" timeLoss="108.49" rerouteNo="0" devices="tripinfo_6.14" vType="paperVehicle" speedFactor="1.16" vaporized=""/>
    <tripinfo id="5.3" depart="213.00" departLane="W2B1_0" departPos="5.10" departSpeed="0.00" departDelay="0.00" arrival="466.00" arrivalLane="B3E2_0" arrivalPos="496.00" arrivalSpeed="8.76" duration="253.00" routeLength="1994.90" waitingTime="22.00" waitingCount="3" stopTime="0.00" timeLoss="53.26" rerouteNo="0" devices="tripinfo_5.3" vType="paperVehicle" speedFactor="0.97" vaporized=""/>
    <tripinfo id="6.15" depart="92.00" departLane="N1A1_0" departPos="5.10" departSpeed="0.00" departDelay="7.00" arrival="468.00" arrivalLane="B3E2_0" arrivalPos="496.00" arrivalSpeed="9.65" duration="376.00" routeLength="2495.93" waitingTime="55.00" waitingCount="7" stopTime="0.00" timeLoss="125.81" rerouteNo="0" devices="tripinfo_6.15" vType="paperVehicle" speedFactor="1.02" vaporized=""/>
    <tripinfo id="6.16" depart="95.00" departLane="N1A1_0" departPos="5.10" departSpeed="0.00" departDelay="1.00" arrival="486.00" arrivalLane="B3E2_0" arrivalPos="496.00" arrivalSpeed="9.54" duration="391.00" routeLength="2495.93" waitingTime="66.00" waitingCount="9" stopTime="0.00" timeLoss="140.09" rerouteNo="0" devices="tripinfo_6.16" vType="paperVehicle" speedFactor="1.01" vaporized=""/>
    <tripinfo id="4.5" depart="256.00" departLane="W1A1_0" departPos="5.10" departSpeed="0.00" departDelay="0.00" arrival="486.00" arrivalLane="A3E1_0" arrivalPos="496.00" arrivalSpeed="8.77" duration="230.00" routeLength="1994.90" waitingTime="5.00" waitingCount="2" stopTime="0.00" timeLoss="30.31" rerouteNo="0" devices="tripinfo_4.5" vType="paperVehicle" speedFactor="1.02" vaporized=""/>
    <tripinfo id="5.4" depart="226.00" departLane="W2B1_0" departPos="5.10" departSpeed="0.00" departDelay="0.00" arrival="489.00" arrivalLane="B3E2_0" arrivalPos="496.00" arrivalSpeed="9.57" duration="263.00" routeLength="1994.90" waitingTime="26.00" waitingCount="4" stopTime="0.00" timeLoss="62.99" rerouteNo="0" devices="tripinfo_5.4" vType="paperVehicle" speedFactor="1.02" vaporized=""/>
    <tripinfo id="3.5" depart="317.00" departLane="N3A3_0" departPos="5.10" departSpeed="0.00" departDelay="0.00" arrival="495.00" arrivalLane="B3S3_0" arrivalPos="492.80" arrivalSpeed="9.41" duration="178.00" routeLength="1494.90" waitingTime="4.00" waitingCount="1" stopTime="0.00" timeLoss="28.12" rerouteNo="0" devices="tripinfo_3.5" vType="paperVehicle" speedFactor="0.98" vaporized=""/>
    <tripinfo id="6.17" depart="98.00" departLane="N1A1_0" departPos="5.10" departSpeed="0.00" departDelay="3.00" arrival="506.00" arrivalLane="B3E2_0" arrivalPos="496.00" arrivalSpeed="9.87" duration="408.00" routeLength="2495.93" waitingTime="74.00" waitingCount="10" stopTime="0.00" timeLoss="157.51" rerouteNo="0" devices="tripinfo_6.17" vType="paperVehicle" speedFactor="0.98" vaporized=""/>
    <tripinfo id="4.6" depart="280.00" departLane="W1A1_0" departPos="5.10" departSpeed="0.00" departDelay="0.00" arrival="506.00" arrivalLane="A3E1_0" arrivalPos="496.00" arrivalSpeed="9.24" duration="226.00" routeLength="1994.90" waitingTime="1.00" waitingCount="1" stopTime="0.00" timeLoss="26.18" rerouteNo="0" devices="tripinfo_4.6" vType="paperVehicle" speedFactor="0.98" vaporized=""/>
    <tripinfo id="6.18" depart="101.00" departLane="N1A1_0" departPos="5.10" departSpeed="0.00" departDelay="5.00" arrival="508.00" arrivalLane="B3E2_0" arrivalPos="496.00" arrivalSpeed="9.65" duration="407.00" routeLength="2495.93" waitingTime="69.00" waitingCount="10" stopTime="0.00" timeLoss="156.19" rerouteNo="0" devices="tripinfo_6.18" vType="paperVehicle" speedFactor="0.89" vaporized=""/>
    <tripinfo id="6.19" depart="104.00" departLane="N1A1_0" departPos="5.10" departSpeed="0.00" departDelay="5.00" arrival="526.00" arrivalLane="B3E2_0" arrivalPos="496.00" arrivalSpeed="8.87" duration="422.00" routeLength="2495.93" waitingTime="79.00" waitingCount="10" stopTime="0.00" timeLoss="171.46" rerouteNo="0" devices="tripinfo_6.19" vType="paperVehicle" speedFactor="0.83" vaporized=""/>
    <tripinfo id="6.20" depart="107.00" departLane="N1A1_0" departPos="5.10" departSpeed="0.00" departDelay="1.00" arrival="528.00" arrivalLane="B3E2_0" arrivalPos="496.00" arrivalSpeed="9.65" duration="421.00" routeLength="2495.93" waitingTime="75.00" waitingCount="10" stopTime="0.00" timeLoss="170.90" rerouteNo="0" devices="tripinfo_6.20" vType="paperVehicle" speedFactor="0.92" vaporized=""/>
    <tripinfo id="5.5" depart="271.00" departLane="W2B1_0" departPos="5.10" departSpeed="0.00" departDelay="0.00" arrival="546.00" arrivalLane="B3E2_0" arrivalPos="496.00" arrivalSpeed="9.42" duration="275.00" routeLength="1994.90" waitingTime="35.00" waitingCount="5" stopTime="0.00" timeLoss="74.88" rerouteNo="0" devices="tripinfo_5.5" vType="paperVehicle" speedFactor="1.06" vaporized=""/>
    <tripinfo id="6.21" depart="119.00" departLane="N1A1_0" departPos="5.10" departSpeed="0.00" departDelay="0.00" arrival="549.00" arrivalLane="B3E2_0" arrivalPos="496.00" arrivalSpeed="8.93" duration="430.00" routeLength="2495.93" waitingTime="85.00" waitingCount="12" stopTime="0.00" timeLoss="179.22" rerouteNo="0" devices="tripinfo_6.21" vType="paperVehicle" speedFactor="0.93" vaporized=""/>
    <tripinfo id="3.6" depart="381.00" departLane="N3A3_0" departPos="5.10" departSpeed="0.00" departDelay="0.00" arrival="556.00" arrivalLane="B3S3_0" arrivalPos="492.80" arrivalSpeed="9.50" duration="175.00" routeLength="1494.90" waitingTime="5.00" waitingCount="2" stopTime="0.00" timeLoss="24.89" rerouteNo="0" devices="tripinfo_3.6" vType="paperVehicle" speedFactor="1.10" vaporized=""/>
    <tripinfo id="1.1" depart="193.00" departLane="N1A1_0" departPos="5.10" departSpeed="0.00" departDelay="6.00" arrival="558.00" arrivalLane="B1S1_0" arrivalPos="492.80" arrivalSpeed="8.84" duration="365.00" routeLength="1494.90" waitingTime="68.00" waitingCount="13" stopTime="0.00" timeLoss="215.07" rerouteNo="0" devices="tripinfo_1.1" vType="paperVehicle" speedFactor="0.85" vaporized=""/>
    <tripinfo id="6.22" depart="122.00" departLane="N1A1_0" departPos="5.10" departSpeed="0.00" departDelay="1.00" arrival="565.00" arrivalLane="B3E2_0" arrivalPos="496.00" arrivalSpeed="9.05" duration="443.00" routeLength="2495.93" waitingTime="94.00" waitingCount="13" stopTime="0.00" timeLoss="192.93" rerouteNo="0" devices="tripinfo_6.22" vType="paperVehicle" speedFactor="1.15" vaporized=""/>
    <tripinfo id="5.6" depart="289.00" departLane="W2B1_0" departPos="5.10" departSpeed="0.00" departDelay="0.00" arrival="568.00" arrivalLane="B3E2_0" arrivalPos="496.00" arrivalSpeed="9.87" duration="279.00" routeLength="1994.90" waitingTime="31.00" waitingCount="5" stopTime="0.00" timeLoss="78.69" rerouteNo="0" devices="tripinfo_5.6" vType="paperVehicle" speedFactor="1.01" vaporized=""/>
    <tripinfo id="1.2" depart="203.00" departLane="N1A1_0" departPos="5.10" departSpeed="0.00" departDelay="0.00" arrival="577.00" arrivalLane="B1S1_0" arrivalPos="492.80" arrivalSpeed="9.22" duration="374.00" routeLength="1494.90" waitingTime="72.00" waitingCount="15" stopTime="0.00" timeLoss="224.47" rerouteNo="0" devices="tripinfo_1.2" vType="paperVehicle" speedFactor="1.00" vaporized=""/>
    <tripinfo id="6.23" depart="127.00" departLane="N1A1_0" departPos="5.10" departSpeed="0.00" departDelay="0.00" arrival="587.00" arrivalLane="B3E2_0" arrivalPos="496.00" arrivalSpeed="9.52" duration="460.00" routeLength="2495.93" waitingTime="105.00" waitingCount="14" stopTime="0.00" timeLoss="209.23" rerouteNo="0" devices="tripinfo_6.23" vType="paperVehicle" speedFactor="1.01" vaporized=""/>
    <tripinfo id="5.7" depart="319.00" departLane="W2B1_0" departPos="5.10" departSpeed="0.00" departDelay="0.00" arrival="589.00" arrivalLane="B3E2_0" arrivalPos="496.00" arrivalSpeed="9.52" duration="270.00" routeLength="1994.90" waitingTime="30.00" waitingCount="4" stopTime="0.00" timeLoss="69.89" rerouteNo="0" devices="tripinfo_5.7" vType="paperVehicle" speedFactor="1.04" vaporized=""/>
    <tripinfo id="6.24" depart="143.00" departLane="N1A1_0" departPos="5.10" departSpeed="0.00" departDelay="0.00" arrival="605.00" arrivalLane="B3E2_0" arrivalPos="496.00" arrivalSpeed="9.62" duration="462.00" routeLength="2495.93" waitingTime="100.00" waitingCount="14" stopTime="0.00" timeLoss="211.93" rerouteNo="0" devices="tripinfo_6.24" vType="paperVehicle" speedFactor="0.97" vaporized=""/>
    <tripinfo id="4.7" depart="380.00" departLane="W1A1_0" departPos="5.10" departSpeed="0.00" departDelay="0.00" arrival="606.00" arrivalLane="A3E1_0" arrivalPos="496.00" arrivalSpeed="9.46" duration="226.00" routeLength="1994.90" waitingTime="3.00" waitingCount="1" stopTime="0.00" timeLoss="25.81" rerouteNo="0" devices="tripinfo_4.7" vType="paperVehicle" speedFactor="1.12" vaporized=""/>
    <tripinfo id="6.25" depart="146.00" departLane="N1A1_0" departPos="5.10" departSpeed="0.00" departDelay="1.00" arrival="608.00" arrivalLane="B3E2_0" arrivalPos="496.00" arrivalSpeed="9.31" duration="462.00" routeLength="2495.93" waitingTime="91.00" waitingCount="14" stopTime="0.00" timeLoss="211.26" rerouteNo="0" devices="tripinfo_6.25" vType="paperVehicle" speedFactor="1.18" vaporized=""/>
    <tripinfo id="1.3" depart="214.00" departLane="N1A1_0" departPos="5.10" departSpeed="0.00" departDelay="3.00" arrival="615.00" arrivalLane="B1S1_0" arrivalPos="492.80" arrivalSpeed="9.18" duration="401.00" routeLength="1494.90" waitingTime="75.00" waitingCount="16" stopTime="0.00" timeLoss="251.12" rerouteNo="0" devices="tripinfo_1.3" vType="paperVehicle" speedFactor="1.14" vaporized=""/>
    <tripinfo id="3.7" depart="439.00" departLane="N3A3_0" departPos="5.10" departSpeed="0.00" departDelay="0.00" arrival="615.00" arrivalLane="B3S3_0" arrivalPos="492.80" arrivalSpeed="9.43" duration="176.00" routeLength="1494.90" waitingTime="6.00" waitingCount="2" stopTime="0.00" timeLoss="25.71" rerouteNo="0" devices="tripinfo_3.7" vType="paperVehicle" speedFactor="0.93" vaporized=""/>
    <tripinfo id="2.1" depart="447.00" departLane="N2A2_0" departPos="5.10" departSpeed="0.00" departDelay="0.00" arrival="615.00" arrivalLane="B2S2_0" arrivalPos="492.80" arrivalSpeed="9.16" duration="168.00" routeLength="1494.90" waitingTime="2.00" waitingCount="1" stopTime="0.00" timeLoss="18.26" rerouteNo="0" devices="tripinfo_2.1" vType="paperVehicle" speedFactor="1.10" vaporized=""/>
    <tripinfo id="6.26" depart="149.00" departLane="N1A1_0" departPos="5.10" departSpeed="0.00" departDelay="1.00" arrival="626.00" arrivalLane="B3E2_0" arrivalPos="496.00" arrivalSpeed="9.45" duration="477.00" routeLength="2495.93" waitingTime="104.00" waitingCount="15" stopTime="0.00" timeLoss="226.76" rerouteNo="0" devices="tripinfo_6.26" vType="paperVehicle" speedFactor="1.10" vaporized=""/>
    <tripinfo id="6.27" depart="155.00" departLane="N1A1_0" departPos="5.10" departSpeed="0.00" departDelay="0.00" arrival="629.00" arrivalLane="B3E2_0" arrivalPos="496.00" arrivalSpeed="8.75" duration="474.00" routeLength="2495.93" waitingTime="87.00" waitingCount="14" stopTime="0.00" timeLoss="222.91" rerouteNo="0" devices="tripinfo_6.27" vType="paperVehicle" speedFactor="0.90" vaporized=""/>
    <tripinfo id="3.8" depart="454.00" departLane="N3A3_0" departPos="5.10" departSpeed="0.00" departDelay="0.00" arrival="635.00" arrivalLane="B3S3_0" arrivalPos="492.80" arrivalSpeed="8.97" duration="181.00" routeLength="1494.90" waitingTime="12.00" waitingCount="2" stopTime="0.00" timeLoss="31.50" rerouteNo="0" devices="tripinfo_3.8" vType="paperVehicle" speedFactor="1.10" vaporized=""/>
    <tripinfo id="6.28" depart="160.00" departLane="N1A1_0" departPos="5.10" departSpeed="0.00" departDelay="0.00" arrival="646.00" arrivalLane="B3E2_0" arrivalPos="496.00" arrivalSpeed="8.82" duration="486.00" routeLength="2495.93" waitingTime="103.00" waitingCount="15" stopTime="0.00" timeLoss="235.44" rerouteNo="0" devices="tripinfo_6.28" vType="paperVehicle" speedFactor="1.03" vaporized=""/>
    <tripinfo id="6.29" depart="167.00" departLane="N1A1_0" departPos="5.10" departSpeed="0.00" departDelay="0.00" arrival="648.00" arrivalLane="B3E2_0" arrivalPos="496.00" arrivalSpeed="9.95" duration="481.00" routeLength="2495.93" waitingTime="87.00" waitingCount="15" stopTime="0.00" timeLoss="229.99" rerouteNo="0" devices="tripinfo_6.29" vType="paperVehicle" speedFactor="0.96" vaporized=""/>
    <tripinfo id="2.2" depart="472.00" departLane="N2A2_0" departPos="5.10" departSpeed="0.00" departDelay="0.00" arrival="655.00" arrivalLane="B2S2_0" arrivalPos="492.80" arrivalSpeed="9.94" duration="183.00" routeLength="1494.90" waitingTime="14.00" waitingCount="2" stopTime="0.00" timeLoss="33.37" rerouteNo="0" devices="tripinfo_2.2" vType="paperVehicle" speedFactor="1.00" vaporized=""/>
    <tripinfo id="6.30" depart="170.00" departLane="N1A1_0" departPos="5.10" departSpeed="0.00" departDelay="0.00" arrival="666.00" arrivalLane="B3E2_0" arrivalPos="496.00" arrivalSpeed="9.22" duration="496.00" routeLength="2495.93" waitingTime="109.00" waitingCount="16" stopTime="0.00" timeLoss="245.30" rerouteNo="0" devices="tripinfo_6.30" vType="paperVehicle" speedFactor="1.09" vaporized=""/>
    <tripinfo id="4.8" depart="427.00" departLane="W1A1_0" departPos="5.10" departSpeed="0.00" departDelay="0.00" arrival="666.00" arrivalLane="A3E1_0" arrivalPos="496.00" arrivalSpeed="9.97" duration="239.00" routeLength="1994.90" waitingTime="10.00" waitingCount="3" stopTime="0.00" timeLoss="38.66" rerouteNo="0" devices="tripinfo_4.8" vType="paperVehicle" speedFactor="1.06" vaporized=""/>
    <tripinfo id="6.31" depart="173.00" departLane="N1A1_0" departPos="5.10" departSpeed="0.00" departDelay="2.00" arrival="668.00" arrivalLane="B3E2_0" arrivalPos="496.00" arrivalSpeed="9.59" duration="495.00" routeLength="2495.93" waitingTime="98.00" waitingCount="16" stopTime="0.00" timeLoss="244.34" rerouteNo="0" devices="tripinfo_6.31" vType="paperVehicle" speedFactor="1.04" vaporized=""/>
    <tripinfo id="4.9" depart="451.00" departLane="W1A1_0" departPos="5.10" departSpeed="0.00" departDelay="0.00" arrival="685.00" arrivalLane="A3E1_0" arrivalPos="496.00" arrivalSpeed="9.32" duration="234.00" routeLength="1994.90" waitingTime="7.00" waitingCount="3" stopTime="0.00" timeLoss="34.43" rerouteNo="0" devices="tripinfo_4.9" vType="paperVehicle" speedFactor="1.01" vaporized=""/>
    <tripinfo id="6.32" depart="178.00" departLane="N1A1_0" departPos="5.10" departSpeed="0.00" departDelay="0.00" arrival="686.00" arrivalLane="B3E2_0" arrivalPos="496.00" arrivalSpeed="9.95" duration="508.00" routeLength="2495.93" waitingTime="110.00" waitingCount="17" stopTime="0.00" timeLoss="257.48" rerouteNo="0" devices="tripinfo_6.32" vType="paperVehicle" speedFactor="1.04" vaporized=""/>
    <tripinfo id="6.33" depart="181.00" departLane="N1A1_0" departPos="5.10" departSpeed="0.00" departDelay="0.00" arrival="688.00" arrivalLane="B3E2_0" arrivalPos="496.00" arrivalSpeed="9.72" duration="507.00" routeLength="2495.93" waitingTime="100.00" waitingCount="17" stopTime="0.00" timeLoss="256.54" rerouteNo="0" devices="tripinfo_6.33" vType="paperVehicle" speedFactor="1.09" vaporized=""/>
    <tripinfo id="2.3" depart="525.00" departLane="N2A2_0" departPos="5.10" departSpeed="0.00" departDelay="0.00" arrival="696.00" arrivalLane="B2S2_0" arrivalPos="492.80" arrivalSpeed="9.77" duration="171.00" routeLength="1494.90" waitingTime="3.00" waitingCount="1" stopTime="0.00" timeLoss="20.74" rerouteNo="0" devices="tripinfo_2.3" vType="paperVehicle" speedFactor="1.15" vaporized=""/>
    <tripinfo id="6.34" depart="184.00" departLane="N1A1_0" departPos="5.10" departSpeed="0.00" departDelay="2.00" arrival="706.00" arrivalLane="B3E2_0" arrivalPos="496.00" arrivalSpeed="9.65" duration="522.00" routeLength="2495.93" waitingTime="114.00" waitingCount="18" stopTime="0.00" timeLoss="271.52" rerouteNo="0" devices="tripinfo_6.34" vType="paperVehicle" speedFactor="1.00" vaporized=""/>
    <tripinfo id="6.35" depart="187.00" departLane="N1A1_0" departPos="5.10" departSpeed="0.00" departDelay="2.00" arrival="708.00" arrivalLane="B3E2_0" arrivalPos="496.00" arrivalSpeed="8.97" duration="521.00" routeLength="2495.93" waitingTime="98.00" waitingCount="18" stopTime="0.00" timeLoss="270.24" rerouteNo="0" devices="tripinfo_6.35" vType="paperVehicle" speedFactor="0.90" vaporized=""/>
    <tripinfo id="2.4" depart="547.00" departLane="N2A2_0" departPos="5.10" departSpeed="0.00" departDelay="0.00" arrival="716.00" arrivalLane="B2S2_0" arrivalPos="492.80" arrivalSpeed="9.02" duration="169.00" routeLength="1494.90" waitingTime="2.00" waitingCount="1" stopTime="0.00" timeLoss="18.73" rerouteNo="0" devices="tripinfo_2.4" vType="paperVehicle" speedFactor="1.03" vaporized=""/>