<?xml version="1.0" encoding="UTF-8"?>

<!-- generated on 2021-12-28 19:27:37 by Eclipse SUMO sumo Version 1.10.0
<configuration xmlns:xsi="http://www.w3.org/2001/XMLSchema-instance" xsi:noNamespaceSchemaLocation="http://sumo.dlr.de/xsd/sumoConfiguration.xsd">

    <input>
        <net-file value="C:\Users\Marcus\Desktop\Hauptordner\Studium\Masterstudium\3.%20Semester\Projekt_Sim-Opt\Traffic_Simulation\2X3GridNetwork\2x3net.net.xml"/>
        <route-files value="C:\Users\Marcus\Desktop\Hauptordner\Studium\Masterstudium\3.%20Semester\Projekt_Sim-Opt\Traffic_Simulation\2X3GridNetwork\2x3Routes.xml"/>
        <additional-files value="C:\Users\Marcus\Desktop\Hauptordner\Studium\Masterstudium\3.%20Semester\Projekt_Sim-Opt\Traffic_Simulation\2X3GridNetwork\additionals.xml"/>
    </input>

    <output>
        <tripinfo-output value="tripinfo.xml"/>
        <statistic-output value="statistics.xml"/>
    </output>

    <report>
        <no-step-log value="true"/>
    </report>

    <traci_server>
        <remote-port value="58577"/>
    </traci_server>

</configuration>
-->

<tripinfos xmlns:xsi="http://www.w3.org/2001/XMLSchema-instance" xsi:noNamespaceSchemaLocation="http://sumo.dlr.de/xsd/tripinfo_file.xsd">
    <tripinfo id="2.0" depart="41.00" departLane="N2A2_0" departPos="5.10" departSpeed="0.00" departDelay="0.00" arrival="154.00" arrivalLane="B2S2_0" arrivalPos="492.80" arrivalSpeed="14.33" duration="113.00" routeLength="1494.90" waitingTime="1.00" waitingCount="1" stopTime="0.00" timeLoss="14.18" rerouteNo="0" devices="tripinfo_2.0" vType="DEFAULT_VEHTYPE" speedFactor="1.09" vaporized=""/>
    <tripinfo id="3.0" depart="23.00" departLane="N3A3_0" departPos="5.10" departSpeed="0.00" departDelay="0.00" arrival="165.00" arrivalLane="B3S3_0" arrivalPos="492.80" arrivalSpeed="13.49" duration="142.00" routeLength="1494.90" waitingTime="20.00" waitingCount="2" stopTime="0.00" timeLoss="38.36" rerouteNo="0" devices="tripinfo_3.0" vType="DEFAULT_VEHTYPE" speedFactor="1.05" vaporized=""/>
    <tripinfo id="2.1" depart="44.00" departLane="N2A2_0" departPos="5.10" departSpeed="0.00" departDelay="2.00" arrival="185.00" arrivalLane="B2S2_0" arrivalPos="492.80" arrivalSpeed="13.69" duration="141.00" routeLength="1494.90" waitingTime="19.00" waitingCount="1" stopTime="0.00" timeLoss="36.03" rerouteNo="0" devices="tripinfo_2.1" vType="DEFAULT_VEHTYPE" speedFactor="1.03" vaporized=""/>
    <tripinfo id="3.1" depart="47.00" departLane="N3A3_0" departPos="5.10" departSpeed="0.00" departDelay="0.00" arrival="186.00" arrivalLane="B3S3_0" arrivalPos="492.80" arrivalSpeed="15.45" duration="139.00" routeLength="1494.90" waitingTime="25.00" waitingCount="2" stopTime="0.00" timeLoss="42.55" rerouteNo="0" devices="tripinfo_3.1" vType="DEFAULT_VEHTYPE" speedFactor="1.12" vaporized=""/>
    <tripinfo id="6.0" depart="3.00" departLane="W1A1_0" departPos="5.10" departSpeed="0.00" departDelay="0.00" arrival="192.00" arrivalLane="B3E2_0" arrivalPos="496.00" arrivalSpeed="14.51" duration="189.00" routeLength="2490.56" waitingTime="0.00" waitingCount="0" stopTime="0.00" timeLoss="18.04" rerouteNo="0" devices="tripinfo_6.0" vType="DEFAULT_VEHTYPE" speedFactor="1.06" vaporized=""/>
    <tripinfo id="2.2" depart="58.00" departLane="N2A2_0" departPos="5.10" departSpeed="0.00" departDelay="0.00" arrival="218.00" arrivalLane="B2S2_0" arrivalPos="492.80" arrivalSpeed="12.37" duration="160.00" routeLength="1494.90" waitingTime="23.00" waitingCount="2" stopTime="0.00" timeLoss="44.51" rerouteNo="0" devices="tripinfo_2.2" vType="DEFAULT_VEHTYPE" speedFactor="0.94" vaporized=""/>
    <tripinfo id="6.1" depart="6.00" departLane="W1A1_0" departPos="5.10" departSpeed="0.00" departDelay="0.00" arrival="223.00" arrivalLane="B3E2_0" arrivalPos="496.00" arrivalSpeed="12.59" duration="217.00" routeLength="2490.56" waitingTime="3.00" waitingCount="1" stopTime="0.00" timeLoss="24.11" rerouteNo="0" devices="tripinfo_6.1" vType="DEFAULT_VEHTYPE" speedFactor="0.94" vaporized=""/>
    <tripinfo id="6.2" depart="10.00" departLane="W1A1_0" departPos="5.10" departSpeed="0.00" departDelay="0.00" arrival="224.00" arrivalLane="B3E2_0" arrivalPos="496.00" arrivalSpeed="13.56" duration="214.00" routeLength="2490.56" waitingTime="1.00" waitingCount="1" stopTime="0.00" timeLoss="34.41" rerouteNo="0" devices="tripinfo_6.2" vType="DEFAULT_VEHTYPE" speedFactor="1.01" vaporized=""/>
    <tripinfo id="6.3" depart="13.00" departLane="W1A1_0" departPos="5.10" departSpeed="0.00" departDelay="0.00" arrival="226.00" arrivalLane="B3E2_0" arrivalPos="496.00" arrivalSpeed="14.83" duration="213.00" routeLength="2490.56" waitingTime="1.00" waitingCount="1" stopTime="0.00" timeLoss="45.92" rerouteNo="0" devices="tripinfo_6.3" vType="DEFAULT_VEHTYPE" speedFactor="1.08" vaporized=""/>
    <tripinfo id="6.4" depart="16.00" departLane="W1A1_0" departPos="5.10" departSpeed="0.00" departDelay="2.00" arrival="228.00" arrivalLane="B3E2_0" arrivalPos="496.00" arrivalSpeed="14.01" duration="212.00" routeLength="2490.56" waitingTime="5.00" waitingCount="1" stopTime="0.00" timeLoss="35.80" rerouteNo="0" devices="tripinfo_6.4" vType="DEFAULT_VEHTYPE" speedFactor="1.03" vaporized=""/>
    <tripinfo id="3.2" depart="87.00" departLane="N3A3_0" departPos="5.10" departSpeed="0.00" departDelay="0.00" arrival="242.00" arrivalLane="B3S3_0" arrivalPos="492.80" arrivalSpeed="12.64" duration="155.00" routeLength="1494.90" waitingTime="16.00" waitingCount="2" stopTime="0.00" timeLoss="37.18" rerouteNo="0" devices="tripinfo_3.2" vType="DEFAULT_VEHTYPE" speedFactor="0.92" vaporized=""/>
    <tripinfo id="4.0" depart="52.00" departLane="W1A1_0" departPos="5.10" departSpeed="0.00" departDelay="0.00" arrival="244.00" arrivalLane="A3E1_0" arrivalPos="496.00" arrivalSpeed="12.26" duration="192.00" routeLength="1994.90" waitingTime="8.00" waitingCount="2" stopTime="0.00" timeLoss="36.26" rerouteNo="0" devices="tripinfo_4.0" vType="DEFAULT_VEHTYPE" speedFactor="0.93" vaporized=""/>
    <tripinfo id="5.0" depart="74.00" departLane="W2B1_0" departPos="5.10" departSpeed="0.00" departDelay="0.00" arrival="245.00" arrivalLane="B3E2_0" arrivalPos="496.00" arrivalSpeed="13.07" duration="171.00" routeLength="1994.90" waitingTime="3.00" waitingCount="1" stopTime="0.00" timeLoss="23.02" rerouteNo="0" devices="tripinfo_5.0" vType="DEFAULT_VEHTYPE" speedFactor="0.98" vaporized=""/>
    <tripinfo id="1.0" depart="134.00" departLane="N1A1_0" departPos="5.10" departSpeed="0.00" departDelay="0.00" arrival="270.00" arrivalLane="B1S1_0" arrivalPos="492.80" arrivalSpeed="13.92" duration="136.00" routeLength="1494.90" waitingTime="13.00" waitingCount="1" stopTime="0.00" timeLoss="28.44" rerouteNo="0" devices="tripinfo_1.0" vType="DEFAULT_VEHTYPE" speedFactor="1.01" vaporized=""/>
    <tripinfo id="6.5" depart="22.00" departLane="W1A1_0" departPos="5.10" departSpeed="0.00" departDelay="0.00" arrival="275.00" arrivalLane="B3E2_0" arrivalPos="496.00" arrivalSpeed="10.62" duration="253.00" routeLength="2490.56" waitingTime="7.00" waitingCount="2" stopTime="0.00" timeLoss="35.33" rerouteNo="0" devices="tripinfo_6.5" vType="DEFAULT_VEHTYPE" speedFactor="0.83" vaporized=""/>
    <tripinfo id="6.6" depart="25.00" departLane="W1A1_0" departPos="5.10" departSpeed="0.00" departDelay="1.00" arrival="277.00" arrivalLane="B3E2_0" arrivalPos="496.00" arrivalSpeed="11.68" duration="252.00" routeLength="2490.56" waitingTime="9.00" waitingCount="3" stopTime="0.00" timeLoss="47.70" rerouteNo="0" devices="tripinfo_6.6" vType="DEFAULT_VEHTYPE" speedFactor="0.89" vaporized=""/>
    <tripinfo id="6.7" depart="29.00" departLane="W1A1_0" departPos="5.10" departSpeed="0.00" departDelay="0.00" arrival="279.00" arrivalLane="B3E2_0" arrivalPos="496.00" arrivalSpeed="12.40" duration="250.00" routeLength="2490.56" waitingTime="8.00" waitingCount="3" stopTime="0.00" timeLoss="56.53" rerouteNo="0" devices="tripinfo_6.7" vType="DEFAULT_VEHTYPE" speedFactor="0.94" vaporized=""/>
    <tripinfo id="3.3" depart="167.00" departLane="N3A3_0" departPos="5.10" departSpeed="0.00" departDelay="0.00" arrival="279.00" arrivalLane="B3S3_0" arrivalPos="492.80" arrivalSpeed="16.00" duration="112.00" routeLength="1494.90" waitingTime="7.00" waitingCount="1" stopTime="0.00" timeLoss="20.11" rerouteNo="0" devices="tripinfo_3.3" vType="DEFAULT_VEHTYPE" speedFactor="1.18" vaporized=""/>
    <tripinfo id="6.8" depart="35.00" departLane="W1A1_0" departPos="5.10" departSpeed="0.00" departDelay="0.00" arrival="283.00" arrivalLane="B3E2_0" arrivalPos="496.00" arrivalSpeed="10.84" duration="248.00" routeLength="2490.56" waitingTime="2.00" waitingCount="1" stopTime="0.00" timeLoss="36.06" rerouteNo="0" devices="tripinfo_6.8" vType="DEFAULT_VEHTYPE" speedFactor="0.86" vaporized=""/>
    <tripinfo id="6.9" depart="45.00" departLane="W1A1_0" departPos="5.10" departSpeed="0.00" departDelay="0.00" arrival="284.00" arrivalLane="B3E2_0" arrivalPos="496.00" arrivalSpeed="13.29" duration="239.00" routeLength="2490.56" waitingTime="2.00" waitingCount="1" stopTime="0.00" timeLoss="66.65" rerouteNo="0" devices="tripinfo_6.9" vType="DEFAULT_VEHTYPE" speedFactor="1.05" vaporized=""/>
    <tripinfo id="6.10" depart="48.00" departLane="W1A1_0" departPos="5.10" departSpeed="0.00" departDelay="0.00" arrival="286.00" arrivalLane="B3E2_0" arrivalPos="496.00" arrivalSpeed="13.38" duration="238.00" routeLength="2490.56" waitingTime="1.00" waitingCount="1" stopTime="0.00" timeLoss="55.10" rerouteNo="0" devices="tripinfo_6.10" vType="DEFAULT_VEHTYPE" speedFactor="0.99" vaporized=""/>
    <tripinfo id="2.3" depart="158.00" departLane="N2A2_0" departPos="5.10" departSpeed="0.00" departDelay="0.00" arrival="286.00" arrivalLane="B2S2_0" arrivalPos="492.80" arrivalSpeed="13.32" duration="128.00" routeLength="1494.90" waitingTime="0.00" waitingCount="0" stopTime="0.00" timeLoss="19.48" rerouteNo="0" devices="tripinfo_2.3" vType="DEFAULT_VEHTYPE" speedFactor="0.99" vaporized=""/>
    <tripinfo id="6.11" depart="55.00" departLane="W1A1_0" departPos="5.10" departSpeed="0.00" departDelay="2.00" arrival="302.00" arrivalLane="B3E2_0" arrivalPos="496.00" arrivalSpeed="12.07" duration="247.00" routeLength="2490.56" waitingTime="12.00" waitingCount="2" stopTime="0.00" timeLoss="40.86" rerouteNo="0" devices="tripinfo_6.11" vType="DEFAULT_VEHTYPE" speedFactor="0.88" vaporized=""/>
    <tripinfo id="6.12" depart="58.00" departLane="W1A1_0" departPos="5.10" departSpeed="0.00" departDelay="2.00" arrival="303.00" arrivalLane="B3E2_0" arrivalPos="496.00" arrivalSpeed="12.77" duration="245.00" routeLength="2490.56" waitingTime="10.00" waitingCount="2" stopTime="0.00" timeLoss="52.92" rerouteNo="0" devices="tripinfo_6.12" vType="DEFAULT_VEHTYPE" speedFactor="0.94" vaporized=""/>
    <tripinfo id="6.13" depart="64.00" departLane="W1A1_0" departPos="5.10" departSpeed="0.00" departDelay="0.00" arrival="305.00" arrivalLane="B3E2_0" arrivalPos="496.00" arrivalSpeed="15.85" duration="241.00" routeLength="2490.56" waitingTime="6.00" waitingCount="2" stopTime="0.00" timeLoss="84.33" rerouteNo="0" devices="tripinfo_6.13" vType="DEFAULT_VEHTYPE" speedFactor="1.16" vaporized=""/>
    <tripinfo id="6.14" depart="67.00" departLane="W1A1_0" departPos="5.10" departSpeed="0.00" departDelay="2.00" arrival="307.00" arrivalLane="B3E2_0" arrivalPos="496.00" arrivalSpeed="12.87" duration="240.00" routeLength="2490.56" waitingTime="4.00" waitingCount="2" stopTime="0.00" timeLoss="61.79" rerouteNo="0" devices="tripinfo_6.14" vType="DEFAULT_VEHTYPE" speedFactor="1.02" vaporized=""/>
    <tripinfo id="6.15" depart="70.00" departLane="W1A1_0" departPos="5.10" departSpeed="0.00" departDelay="0.00" arrival="309.00" arrivalLane="B3E2_0" arrivalPos="496.00" arrivalSpeed="13.23" duration="239.00" routeLength="2490.56" waitingTime="4.00" waitingCount="2" stopTime="0.00" timeLoss="59.27" rerouteNo="0" devices="tripinfo_6.15" vType="DEFAULT_VEHTYPE" speedFactor="1.01" vaporized=""/>
    <tripinfo id="6.16" depart="83.00" departLane="W1A1_0" departPos="5.10" departSpeed="0.00" departDelay="0.00" arrival="321.00" arrivalLane="B3E2_0" arrivalPos="496.00" arrivalSpeed="11.80" duration="238.00" routeLength="2490.56" waitingTime="4.00" waitingCount="1" stopTime="0.00" timeLoss="34.13" rerouteNo="0" devices="tripinfo_6.16" vType="DEFAULT_VEHTYPE" speedFactor="0.89" vaporized=""/>
    <tripinfo id="6.17" depart="86.00" departLane="W1A1_0" departPos="5.10" departSpeed="0.00" departDelay="2.00" arrival="331.00" arrivalLane="B3E2_0" arrivalPos="496.00" arrivalSpeed="11.15" duration="245.00" routeLength="2490.56" waitingTime="4.00" waitingCount="2" stopTime="0.00" timeLoss="26.49" rerouteNo="0" devices="tripinfo_6.17" vType="DEFAULT_VEHTYPE" speedFactor="0.83" vaporized=""/>
    <tripinfo id="2.4" depart="193.00" departLane="N2A2_0" departPos="5.10" departSpeed="0.00" departDelay="0.00" arrival="332.00" arrivalLane="B2S2_0" arrivalPos="492.80" arrivalSpeed="12.26" duration="139.00" routeLength="1494.90" waitingTime="11.00" waitingCount="1" stopTime="0.00" timeLoss="25.81" rerouteNo="0" devices="tripinfo_2.4" vType="DEFAULT_VEHTYPE" speedFactor="0.96" vaporized=""/>
    <tripinfo id="6.18" depart="89.00" departLane="W1A1_0" departPos="5.10" departSpeed="0.00" departDelay="3.00" arrival="333.00" arrivalLane="B3E2_0" arrivalPos="496.00" arrivalSpeed="11.34" duration="244.00" routeLength="2490.56" waitingTime="1.00" waitingCount="1" stopTime="0.00" timeLoss="36.38" rerouteNo="0" devices="tripinfo_6.18" vType="DEFAULT_VEHTYPE" speedFactor="0.87" vaporized=""/>
    <tripinfo id="6.19" depart="98.00" departLane="W1A1_0" departPos="5.10" departSpeed="0.00" departDelay="0.00" arrival="335.00" arrivalLane="B3E2_0" arrivalPos="496.00" arrivalSpeed="11.89" duration="237.00" routeLength="2490.56" waitingTime="0.00" waitingCount="0" stopTime="0.00" timeLoss="45.82" rerouteNo="0" devices="tripinfo_6.19" vType="DEFAULT_VEHTYPE" speedFactor="0.95" vaporized=""/>
    <tripinfo id="6.20" depart="110.00" departLane="W1A1_0" departPos="5.10" departSpeed="0.00" departDelay="0.00" arrival="336.00" arrivalLane="B3E2_0" arrivalPos="496.00" arrivalSpeed="14.39" duration="226.00" routeLength="2490.56" waitingTime="0.00" waitingCount="0" stopTime="0.00" timeLoss="66.73" rerouteNo="0" devices="tripinfo_6.20" vType="DEFAULT_VEHTYPE" speedFactor="1.13" vaporized=""/>
    <tripinfo id="3.4" depart="180.00" departLane="N3A3_0" departPos="5.10" departSpeed="0.00" departDelay="0.00" arrival="339.00" arrivalLane="B3S3_0" arrivalPos="492.80" arrivalSpeed="11.62" duration="159.00" routeLength="1494.90" waitingTime="19.00" waitingCount="2" stopTime="0.00" timeLoss="38.84" rerouteNo="0" devices="tripinfo_3.4" vType="DEFAULT_VEHTYPE" speedFactor="0.90" vaporized=""/>
    <tripinfo id="6.21" depart="120.00" departLane="W1A1_0" departPos="5.10" departSpeed="0.00" departDelay="0.00" arrival="343.00" arrivalLane="B3E2_0" arrivalPos="496.00" arrivalSpeed="11.70" duration="223.00" routeLength="2490.56" waitingTime="5.00" waitingCount="2" stopTime="0.00" timeLoss="29.14" rerouteNo="0" devices="tripinfo_6.21" vType="DEFAULT_VEHTYPE" speedFactor="0.93" vaporized=""/>
    <tripinfo id="6.22" depart="125.00" departLane="W1A1_0" departPos="5.10" departSpeed="0.00" departDelay="0.00" arrival="345.00" arrivalLane="B3E2_0" arrivalPos="496.00" arrivalSpeed="15.74" duration="220.00" routeLength="2490.56" waitingTime="7.00" waitingCount="2" stopTime="0.00" timeLoss="66.26" rerouteNo="0" devices="tripinfo_6.22" vType="DEFAULT_VEHTYPE" speedFactor="1.18" vaporized=""/>
    <tripinfo id="6.23" depart="128.00" departLane="W1A1_0" departPos="5.10" departSpeed="0.00" departDelay="2.00" arrival="346.00" arrivalLane="B3E2_0" arrivalPos="496.00" arrivalSpeed="14.32" duration="218.00" routeLength="2490.56" waitingTime="8.00" waitingCount="2" stopTime="0.00" timeLoss="61.22" rerouteNo="0" devices="tripinfo_6.23" vType="DEFAULT_VEHTYPE" speedFactor="1.15" vaporized=""/>
    <tripinfo id="6.24" depart="154.00" departLane="W1A1_0" departPos="5.10" departSpeed="0.00" departDelay="0.00" arrival="348.00" arrivalLane="B3E2_0" arrivalPos="496.00" arrivalSpeed="14.99" duration="194.00" routeLength="2490.56" waitingTime="4.00" waitingCount="1" stopTime="0.00" timeLoss="39.04" rerouteNo="0" devices="tripinfo_6.24" vType="DEFAULT_VEHTYPE" speedFactor="1.17" vaporized=""/>
    <tripinfo id="6.25" depart="160.00" departLane="W1A1_0" departPos="5.10" departSpeed="0.00" departDelay="0.00" arrival="353.00" arrivalLane="B3E2_0" arrivalPos="496.00" arrivalSpeed="13.81" duration="193.00" routeLength="2490.56" waitingTime="0.00" waitingCount="0" stopTime="0.00" timeLoss="15.46" rerouteNo="0" devices="tripinfo_6.25" vType="DEFAULT_VEHTYPE" speedFactor="1.02" vaporized=""/>
    <tripinfo id="3.5" depart="196.00" departLane="N3A3_0" departPos="5.10" departSpeed="0.00" departDelay="0.00" arrival="355.00" arrivalLane="B3S3_0" arrivalPos="492.80" arrivalSpeed="14.36" duration="159.00" routeLength="1494.90" waitingTime="27.00" waitingCount="2" stopTime="0.00" timeLoss="59.92" rerouteNo="0" devices="tripinfo_3.5" vType="DEFAULT_VEHTYPE" speedFactor="1.09" vaporized=""/>
    <tripinfo id="4.1" depart="205.00" departLane="W1A1_0" departPos="5.10" departSpeed="0.00" departDelay="0.00" arrival="359.00" arrivalLane="A3E1_0" arrivalPos="496.00" arrivalSpeed="14.33" duration="154.00" routeLength="1994.90" waitingTime="0.00" waitingCount="0" stopTime="0.00" timeLoss="14.67" rerouteNo="0" devices="tripinfo_4.1" vType="DEFAULT_VEHTYPE" speedFactor="1.04" vaporized=""/>
    <tripinfo id="6.26" depart="166.00" departLane="W1A1_0" departPos="5.10" departSpeed="0.00" departDelay="0.00" arrival="367.00" arrivalLane="B3E2_0" arrivalPos="496.00" arrivalSpeed="12.24" duration="201.00" routeLength="2490.56" waitingTime="0.00" waitingCount="0" stopTime="0.00" timeLoss="15.39" rerouteNo="0" devices="tripinfo_6.26" vType="DEFAULT_VEHTYPE" speedFactor="0.97" vaporized=""/>
    <tripinfo id="6.27" depart="169.00" departLane="W1A1_0" departPos="5.10" departSpeed="0.00" departDelay="0.00" arrival="369.00" arrivalLane="B3E2_0" arrivalPos="496.00" arrivalSpeed="14.20" duration="200.00" routeLength="2490.56" waitingTime="4.00" waitingCount="1" stopTime="0.00" timeLoss="35.08" rerouteNo="0" devices="tripinfo_6.27" vType="DEFAULT_VEHTYPE" speedFactor="1.10" vaporized=""/>
    <tripinfo id="6.28" depart="180.00" departLane="W1A1_0" departPos="5.10" departSpeed="0.00" departDelay="0.00" arrival="374.00" arrivalLane="B3E2_0" arrivalPos="496.00" arrivalSpeed="13.32" duration="194.00" routeLength="2490.56" waitingTime="0.00" waitingCount="0" stopTime="0.00" timeLoss="18.95" rerouteNo="0" devices="tripinfo_6.28" vType="DEFAULT_VEHTYPE" speedFactor="1.03" vaporized=""/>
    <tripinfo id="3.6" depart="207.00" departLane="N3A3_0" departPos="5.10" departSpeed="0.00" departDelay="0.00" arrival="381.00" arrivalLane="B3S3_0" arrivalPos="492.80" arrivalSpeed="13.87" duration="174.00" routeLength="1494.90" waitingTime="48.00" waitingCount="3" stopTime="0.00" timeLoss="69.98" rerouteNo="0" devices="tripinfo_3.6" vType="DEFAULT_VEHTYPE" speedFactor="1.04" vaporized=""/>
    <tripinfo id="1.1" depart="231.00" departLane="N1A1_0" departPos="5.10" departSpeed="0.00" departDelay="0.00" arrival="392.00" arrivalLane="B1S1_0" arrivalPos="492.80" arrivalSpeed="11.18" duration="161.00" routeLength="1494.90" waitingTime="19.00" waitingCount="2" stopTime="0.00" timeLoss="38.06" rerouteNo="0" devices="tripinfo_1.1" vType="DEFAULT_VEHTYPE" speedFactor="0.88" vaporized=""/>
    <tripinfo id="1.2" depart="264.00" departLane="N1A1_0" departPos="5.10" departSpeed="0.00" departDelay="0.00" arrival="394.00" arrivalLane="B1S1_0" arrivalPos="492.80" arrivalSpeed="12.39" duration="130.00" routeLength="1494.90" waitingTime="3.00" waitingCount="1" stopTime="0.00" timeLoss="18.52" rerouteNo="0" devices="tripinfo_1.2" vType="DEFAULT_VEHTYPE" speedFactor="0.97" vaporized=""/>
    <tripinfo id="6.29" depart="217.00" departLane="W1A1_0" departPos="5.10" departSpeed="0.00" departDelay="0.00" arrival="407.00" arrivalLane="B3E2_0" arrivalPos="496.00" arrivalSpeed="14.44" duration="190.00" routeLength="2490.56" waitingTime="2.00" waitingCount="1" stopTime="0.00" timeLoss="23.77" rerouteNo="0" devices="tripinfo_6.29" vType="DEFAULT_VEHTYPE" speedFactor="1.09" vaporized=""/>
    <tripinfo id="4.2" depart="228.00" departLane="W1A1_0" departPos="5.10" departSpeed="0.00" departDelay="0.00" arrival="413.00" arrivalLane="A3E1_0" arrivalPos="496.00" arrivalSpeed="11.31" duration="185.00" routeLength="1994.90" waitingTime="7.00" waitingCount="1" stopTime="0.00" timeLoss="25.45" rerouteNo="0" devices="tripinfo_4.2" vType="DEFAULT_VEHTYPE" speedFactor="0.90" vaporized=""/>
    <tripinfo id="4.3" depart="238.00" departLane="W1A1_0" departPos="5.10" departSpeed="0.00" departDelay="0.00" arrival="415.00" arrivalLane="A3E1_0" arrivalPos="496.00" arrivalSpeed="13.04" duration="177.00" routeLength="1994.90" waitingTime="0.00" waitingCount="0" stopTime="0.00" timeLoss="35.36" rerouteNo="0" devices="tripinfo_4.3" vType="DEFAULT_VEHTYPE" speedFactor="1.02" vaporized=""/>
    <tripinfo id="4.4" depart="264.00" departLane="W1A1_0" departPos="5.10" departSpeed="0.00" departDelay="0.00" arrival="429.00" arrivalLane="A3E1_0" arrivalPos="496.00" arrivalSpeed="14.00" duration="165.00" routeLength="1994.90" waitingTime="4.00" waitingCount="1" stopTime="0.00" timeLoss="31.44" rerouteNo="0" devices="tripinfo_4.4" vType="DEFAULT_VEHTYPE" speedFactor="1.08" vaporized=""/>
    <tripinfo id="2.5" depart="288.00" departLane="N2A2_0" departPos="5.10" departSpeed="0.00" departDelay="0.00" arrival="431.00" arrivalLane="B2S2_0" arrivalPos="492.80" arrivalSpeed="13.68" duration="143.00" routeLength="1494.90" waitingTime="16.00" waitingCount="1" stopTime="0.00" timeLoss="39.31" rerouteNo="0" devices="tripinfo_2.5" vType="DEFAULT_VEHTYPE" speedFactor="1.04" vaporized=""/>
    <tripinfo id="5.1" depart="234.00" departLane="W2B1_0" departPos="5.10" departSpeed="0.00" departDelay="0.00" arrival="443.00" arrivalLane="B3E2_0" arrivalPos="496.00" arrivalSpeed="10.69" duration="209.00" routeLength="1994.90" waitingTime="19.00" waitingCount="2" stopTime="0.00" timeLoss="40.90" rerouteNo="0" devices="tripinfo_5.1" vType="DEFAULT_VEHTYPE" speedFactor="0.85" vaporized=""/>
    <tripinfo id="6.30" depart="223.00" departLane="W1A1_0" departPos="5.10" departSpeed="0.00" departDelay="0.00" arrival="445.00" arrivalLane="B3E2_0" arrivalPos="496.00" arrivalSpeed="12.84" duration="222.00" routeLength="2490.56" waitingTime="6.00" waitingCount="2" stopTime="0.00" timeLoss="40.35" rerouteNo="0" devices="tripinfo_6.30" vType="DEFAULT_VEHTYPE" speedFactor="1.00" vaporized=""/>
    <tripinfo id="3.7" depart="319.00" departLane="N3A3_0" departPos="5.10" departSpeed="0.00" departDelay="0.00" arrival="456.00" arrivalLane="B3S3_0" arrivalPos="492.80" arrivalSpeed="12.45" duration="137.00" routeLength="1494.90" waitingTime="10.00" waitingCount="1" stopTime="0.00" timeLoss="23.78" rerouteNo="0" devices="tripinfo_3.7" vType="DEFAULT_VEHTYPE" speedFactor="0.96" vaporized=""/>
    <tripinfo id="5.2" depart="243.00" departLane="W2B1_0" departPos="5.10" departSpeed="0.00" departDelay="0.00" arrival="460.00" arrivalLane="B3E2_0" arrivalPos="496.00" arrivalSpeed="12.55" duration="217.00" routeLength="1994.90" waitingTime="36.00" waitingCount="2" stopTime="0.00" timeLoss="72.15" rerouteNo="0" devices="tripinfo_5.2" vType="DEFAULT_VEHTYPE" speedFactor="1.00" vaporized=""/>
    <tripinfo id="4.5" depart="294.00" departLane="W1A1_0" departPos="5.10" departSpeed="0.00" departDelay="3.00" arrival="461.00" arrivalLane="A3E1_0" arrivalPos="496.00" arrivalSpeed="13.28" duration="167.00" routeLength="1994.90" waitingTime="3.00" waitingCount="1" stopTime="0.00" timeLoss="26.13" rerouteNo="0" devices="tripinfo_4.5" vType="DEFAULT_VEHTYPE" speedFactor="1.02" vaporized=""/>
    <tripinfo id="6.31" depart="232.00" departLane="W1A1_0" departPos="5.10" departSpeed="0.00" departDelay="0.00" arrival="473.00" arrivalLane="B3E2_0" arrivalPos="496.00" arrivalSpeed="11.66" duration="241.00" routeLength="2490.56" waitingTime="4.00" waitingCount="1" stopTime="0.00" timeLoss="28.30" rerouteNo="0" devices="tripinfo_6.31" vType="DEFAULT_VEHTYPE" speedFactor="0.85" vaporized=""/>
    <tripinfo id="6.32" depart="235.00" departLane="W1A1_0" departPos="5.10" departSpeed="0.00" departDelay="1.00" arrival="475.00" arrivalLane="B3E2_0" arrivalPos="496.00" arrivalSpeed="14.45" duration="240.00" routeLength="2490.56" waitingTime="1.00" waitingCount="1" stopTime="0.00" timeLoss="85.01" rerouteNo="0" devices="tripinfo_6.32" vType="DEFAULT_VEHTYPE" speedFactor="1.17" vaporized=""/>
    <tripinfo id="6.33" depart="241.00" departLane="W1A1_0" departPos="5.10" departSpeed="0.00" departDelay="2.00" arrival="476.00" arrivalLane="B3E2_0" arrivalPos="496.00" arrivalSpeed="14.63" duration="235.00" routeLength="2490.56" waitingTime="1.00" waitingCount="1" stopTime="0.00" timeLoss="70.17" rerouteNo="0" devices="tripinfo_6.33" vType="DEFAULT_VEHTYPE" speedFactor="1.10" vaporized=""/>
    <tripinfo id="6.34" depart="244.00" departLane="W1A1_0" departPos="5.10" departSpeed="0.00" departDelay="4.00" arrival="478.00" arrivalLane="B3E2_0" arrivalPos="496.00" arrivalSpeed="13.46" duration="234.00" routeLength="2490.56" waitingTime="3.00" waitingCount="1" stopTime="0.00" timeLoss="52.93" rerouteNo="0" devices="tripinfo_6.34" vType="DEFAULT_VEHTYPE" speedFactor="1.00" vaporized=""/>
    <tripinfo id="3.8" depart="328.00" departLane="N3A3_0" departPos="5.10" departSpeed="0.00" departDelay="0.00" arrival="478.00" arrivalLane="B3S3_0" arrivalPos="492.80" arrivalSpeed="12.92" duration="150.00" routeLength="1494.90" waitingTime="23.00" waitingCount="2" stopTime="0.00" timeLoss="42.71" rerouteNo="0" devices="tripinfo_3.8" vType="DEFAULT_VEHTYPE" speedFactor="1.01" vaporized=""/>
    <tripinfo id="6.35" depart="247.00" departLane="W1A1_0" departPos="5.10" departSpeed="0.00" departDelay="4.00" arrival="480.00" arrivalLane="B3E2_0" arrivalPos="496.00" arrivalSpeed="11.71" duration="233.00" routeLength="2490.56" waitingTime="1.00" waitingCount="1" stopTime="0.00" timeLoss="31.27" rerouteNo="0" devices="tripinfo_6.35" vType="DEFAULT_VEHTYPE" speedFactor="0.90" vaporized=""/>
    <tripinfo id="6.36" depart="250.00" departLane="W1A1_0" departPos="5.10" departSpeed="0.00" departDelay="3.00" arrival="482.00" arrivalLane="B3E2_0" arrivalPos="496.00" arrivalSpeed="14.60" duration="232.00" routeLength="2490.56" waitingTime="11.00" waitingCount="2" stopTime="0.00" timeLoss="73.34" rerouteNo="0" devices="tripinfo_6.36" vType="DEFAULT_VEHTYPE" speedFactor="1.14" vaporized=""/>
    <tripinfo id="4.6" depart="338.00" departLane="W1A1_0" departPos="5.10" departSpeed="0.00" departDelay="0.00" arrival="484.00" arrivalLane="A3E1_0" arrivalPos="496.00" arrivalSpeed="14.11" duration="146.00" routeLength="1994.90" waitingTime="0.00" waitingCount="0" stopTime="0.00" timeLoss="13.25" rerouteNo="0" devices="tripinfo_4.6" vType="DEFAULT_VEHTYPE" speedFactor="1.09" vaporized=""/>
    <tripinfo id="5.3" depart="263.00" departLane="W2B1_0" departPos="5.10" departSpeed="0.00" departDelay="0.00" arrival="485.00" arrivalLane="B3E2_0" arrivalPos="496.00" arrivalSpeed="13.38" duration="222.00" routeLength="1994.90" waitingTime="47.00" waitingCount="5" stopTime="0.00" timeLoss="80.94" rerouteNo="0" devices="tripinfo_5.3" vType="DEFAULT_VEHTYPE" speedFactor="1.02" vaporized=""/>
    <tripinfo id="6.37" depart="268.00" departLane="W1A1_0" departPos="5.10" departSpeed="0.00" departDelay="0.00" arrival="486.00" arrivalLane="B3E2_0" arrivalPos="496.00" arrivalSpeed="15.17" duration="218.00" routeLength="2490.56" waitingTime="10.00" waitingCount="3" stopTime="0.00" timeLoss="56.69" rerouteNo="0" devices="tripinfo_6.37" vType="DEFAULT_VEHTYPE" speedFactor="1.12" vaporized=""/>
    <tripinfo id="6.38" depart="271.00" departLane="W1A1_0" departPos="5.10" departSpeed="0.00" departDelay="2.00" arrival="489.00" arrivalLane="B3E2_0" arrivalPos="496.00" arrivalSpeed="13.21" duration="218.00" routeLength="2490.56" waitingTime="6.00" waitingCount="2" stopTime="0.00" timeLoss="39.52" rerouteNo="0" devices="tripinfo_6.38" vType="DEFAULT_VEHTYPE" speedFactor="1.02" vaporized=""/>
    <tripinfo id="6.39" depart="274.00" departLane="W1A1_0" departPos="5.10" departSpeed="0.00" departDelay="3.00" arrival="492.00" arrivalLane="B3E2_0" arrivalPos="496.00" arrivalSpeed="12.42" duration="218.00" routeLength="2490.56" waitingTime="3.00" waitingCount="2" stopTime="0.00" timeLoss="34.76" rerouteNo="0" devices="tripinfo_6.39" vType="DEFAULT_VEHTYPE" speedFactor="0.99" vaporized=""/>
    <tripinfo id="6.40" depart="277.00" departLane="W1A1_0" departPos="5.10" departSpeed="0.00" departDelay="3.00" arrival="496.00" arrivalLane="B3E2_0" arrivalPos="496.00" arrivalSpeed="12.38" duration="219.00" routeLength="2490.56" waitingTime="0.00" waitingCount="0" stopTime="0.00" timeLoss="25.80" rerouteNo="0" devices="tripinfo_6.40" vType="DEFAULT_VEHTYPE" speedFactor="0.94" vaporized=""/>
    <tripinfo id="2.6" depart="366.00" departLane="N2A2_0" departPos="5.10" departSpeed="0.00" departDelay="0.00" arrival="501.00" arrivalLane="B2S2_0" arrivalPos="492.80" arrivalSpeed="13.91" duration="135.00" routeLength="1494.90" waitingTime="10.00" waitingCount="1" stopTime="0.00" timeLoss="28.05" rerouteNo="0" devices="tripinfo_2.6" vType="DEFAULT_VEHTYPE" speedFactor="1.01" vaporized=""/>
    <tripinfo id="3.9" depart="355.00" departLane="N3A3_0" departPos="5.10" departSpeed="0.00" departDelay="0.00" arrival="504.00" arrivalLane="B3S3_0" arrivalPos="492.80" arrivalSpeed="13.39" duration="149.00" routeLength="1494.90" waitingTime="19.00" waitingCount="2" stopTime="0.00" timeLoss="38.06" rerouteNo="0" devices="tripinfo_3.9" vType="DEFAULT_VEHTYPE" speedFactor="0.98" vaporized=""/>