<?xml version="1.0" encoding="UTF-8"?>

<!-- generated on 2021-12-27 22:23:34 by Eclipse SUMO sumo Version 1.10.0
<configuration xmlns:xsi="http://www.w3.org/2001/XMLSchema-instance" xsi:noNamespaceSchemaLocation="http://sumo.dlr.de/xsd/sumoConfiguration.xsd">

    <input>
        <net-file value="C:\Users\Marcus\Desktop\Hauptordner\Studium\Masterstudium\3.%20Semester\Projekt_Sim-Opt\Traffic_Simulation\2X3GridNetwork\2x3net.net.xml"/>
        <route-files value="C:\Users\Marcus\Desktop\Hauptordner\Studium\Masterstudium\3.%20Semester\Projekt_Sim-Opt\Traffic_Simulation\2X3GridNetwork\2x3Routes.xml"/>
        <additional-files value="C:\Users\Marcus\Desktop\Hauptordner\Studium\Masterstudium\3.%20Semester\Projekt_Sim-Opt\Traffic_Simulation\2X3GridNetwork\additionals.xml"/>
    </input>

    <output>
        <tripinfo-output value="tripinfo.xml"/>
        <statistic-output value="statistics.xml"/>
    </output>

    <report>
        <no-step-log value="true"/>
    </report>

    <traci_server>
        <remote-port value="58789"/>
    </traci_server>

</configuration>
-->

<tripinfos xmlns:xsi="http://www.w3.org/2001/XMLSchema-instance" xsi:noNamespaceSchemaLocation="http://sumo.dlr.de/xsd/tripinfo_file.xsd">
    <tripinfo id="2.0" depart="32.00" departLane="N2A2_0" departPos="5.10" departSpeed="0.00" departDelay="0.00" arrival="167.00" arrivalLane="B2S2_0" arrivalPos="492.80" arrivalSpeed="14.23" duration="135.00" routeLength="1494.90" waitingTime="18.00" waitingCount="1" stopTime="0.00" timeLoss="31.53" rerouteNo="0" devices="tripinfo_2.0" vType="DEFAULT_VEHTYPE" speedFactor="1.05" vaporized=""/>
    <tripinfo id="1.0" depart="38.00" departLane="N1A1_0" departPos="5.10" departSpeed="0.00" departDelay="0.00" arrival="174.00" arrivalLane="B1S1_0" arrivalPos="492.80" arrivalSpeed="11.56" duration="136.00" routeLength="1494.90" waitingTime="0.00" waitingCount="0" stopTime="0.00" timeLoss="14.31" rerouteNo="0" devices="tripinfo_1.0" vType="DEFAULT_VEHTYPE" speedFactor="0.89" vaporized=""/>
    <tripinfo id="3.0" depart="62.00" departLane="N3A3_0" departPos="5.10" departSpeed="0.00" departDelay="0.00" arrival="175.00" arrivalLane="B3S3_0" arrivalPos="492.80" arrivalSpeed="13.61" duration="113.00" routeLength="1494.90" waitingTime="0.00" waitingCount="0" stopTime="0.00" timeLoss="7.56" rerouteNo="0" devices="tripinfo_3.0" vType="DEFAULT_VEHTYPE" speedFactor="1.03" vaporized=""/>
    <tripinfo id="2.1" depart="70.00" departLane="N2A2_0" departPos="5.10" departSpeed="0.00" departDelay="0.00" arrival="192.00" arrivalLane="B2S2_0" arrivalPos="492.80" arrivalSpeed="14.22" duration="122.00" routeLength="1494.90" waitingTime="5.00" waitingCount="1" stopTime="0.00" timeLoss="18.96" rerouteNo="0" devices="tripinfo_2.1" vType="DEFAULT_VEHTYPE" speedFactor="1.05" vaporized=""/>
    <tripinfo id="6.0" depart="9.00" departLane="N1A1_0" departPos="5.10" departSpeed="0.00" departDelay="0.00" arrival="208.00" arrivalLane="B3E2_0" arrivalPos="496.00" arrivalSpeed="13.96" duration="199.00" routeLength="2495.93" waitingTime="5.00" waitingCount="2" stopTime="0.00" timeLoss="28.15" rerouteNo="0" devices="tripinfo_6.0" vType="DEFAULT_VEHTYPE" speedFactor="1.06" vaporized=""/>
    <tripinfo id="4.0" depart="26.00" departLane="W1A1_0" departPos="5.10" departSpeed="0.00" departDelay="0.00" arrival="208.00" arrivalLane="A3E1_0" arrivalPos="496.00" arrivalSpeed="13.27" duration="182.00" routeLength="1994.90" waitingTime="21.00" waitingCount="2" stopTime="0.00" timeLoss="39.75" rerouteNo="0" devices="tripinfo_4.0" vType="DEFAULT_VEHTYPE" speedFactor="1.01" vaporized=""/>
    <tripinfo id="6.1" depart="12.00" departLane="N1A1_0" departPos="5.10" departSpeed="0.00" departDelay="1.00" arrival="222.00" arrivalLane="B3E2_0" arrivalPos="496.00" arrivalSpeed="11.92" duration="210.00" routeLength="2495.93" waitingTime="0.00" waitingCount="0" stopTime="0.00" timeLoss="17.33" rerouteNo="0" devices="tripinfo_6.1" vType="DEFAULT_VEHTYPE" speedFactor="0.94" vaporized=""/>
    <tripinfo id="6.2" depart="26.00" departLane="N1A1_0" departPos="5.10" departSpeed="0.00" departDelay="0.00" arrival="224.00" arrivalLane="B3E2_0" arrivalPos="496.00" arrivalSpeed="14.80" duration="198.00" routeLength="2495.93" waitingTime="0.00" waitingCount="0" stopTime="0.00" timeLoss="30.17" rerouteNo="0" devices="tripinfo_6.2" vType="DEFAULT_VEHTYPE" speedFactor="1.08" vaporized=""/>
    <tripinfo id="6.3" depart="29.00" departLane="N1A1_0" departPos="5.10" departSpeed="0.00" departDelay="2.00" arrival="225.00" arrivalLane="B3E2_0" arrivalPos="496.00" arrivalSpeed="13.34" duration="196.00" routeLength="2495.93" waitingTime="0.00" waitingCount="0" stopTime="0.00" timeLoss="20.86" rerouteNo="0" devices="tripinfo_6.3" vType="DEFAULT_VEHTYPE" speedFactor="1.03" vaporized=""/>
    <tripinfo id="2.2" depart="79.00" departLane="N2A2_0" departPos="5.10" departSpeed="0.00" departDelay="0.00" arrival="226.00" arrivalLane="B2S2_0" arrivalPos="492.80" arrivalSpeed="12.33" duration="147.00" routeLength="1494.90" waitingTime="14.00" waitingCount="1" stopTime="0.00" timeLoss="29.95" rerouteNo="0" devices="tripinfo_2.2" vType="DEFAULT_VEHTYPE" speedFactor="0.93" vaporized=""/>
    <tripinfo id="3.1" depart="75.00" departLane="N3A3_0" departPos="5.10" departSpeed="0.00" departDelay="0.00" arrival="232.00" arrivalLane="B3S3_0" arrivalPos="492.80" arrivalSpeed="12.64" duration="157.00" routeLength="1494.90" waitingTime="28.00" waitingCount="2" stopTime="0.00" timeLoss="47.51" rerouteNo="0" devices="tripinfo_3.1" vType="DEFAULT_VEHTYPE" speedFactor="0.99" vaporized=""/>
    <tripinfo id="1.1" depart="103.00" departLane="N1A1_0" departPos="5.10" departSpeed="0.00" departDelay="0.00" arrival="238.00" arrivalLane="B1S1_0" arrivalPos="492.80" arrivalSpeed="13.46" duration="135.00" routeLength="1494.90" waitingTime="4.00" waitingCount="1" stopTime="0.00" timeLoss="28.27" rerouteNo="0" devices="tripinfo_1.1" vType="DEFAULT_VEHTYPE" speedFactor="1.01" vaporized=""/>
    <tripinfo id="2.3" depart="131.00" departLane="N2A2_0" departPos="5.10" departSpeed="0.00" departDelay="0.00" arrival="247.00" arrivalLane="B2S2_0" arrivalPos="492.80" arrivalSpeed="13.56" duration="116.00" routeLength="1494.90" waitingTime="0.00" waitingCount="0" stopTime="0.00" timeLoss="8.75" rerouteNo="0" devices="tripinfo_2.3" vType="DEFAULT_VEHTYPE" speedFactor="1.01" vaporized=""/>
    <tripinfo id="3.2" depart="88.00" departLane="N3A3_0" departPos="5.10" departSpeed="0.00" departDelay="0.00" arrival="261.00" arrivalLane="B3S3_0" arrivalPos="492.80" arrivalSpeed="12.29" duration="173.00" routeLength="1494.90" waitingTime="40.00" waitingCount="2" stopTime="0.00" timeLoss="58.20" rerouteNo="0" devices="tripinfo_3.2" vType="DEFAULT_VEHTYPE" speedFactor="0.94" vaporized=""/>
    <tripinfo id="1.2" depart="135.00" departLane="N1A1_0" departPos="5.10" departSpeed="0.00" departDelay="0.00" arrival="266.00" arrivalLane="B1S1_0" arrivalPos="492.80" arrivalSpeed="15.53" duration="131.00" routeLength="1494.90" waitingTime="3.00" waitingCount="1" stopTime="0.00" timeLoss="38.45" rerouteNo="0" devices="tripinfo_1.2" vType="DEFAULT_VEHTYPE" speedFactor="1.17" vaporized=""/>
    <tripinfo id="6.4" depart="32.00" departLane="N1A1_0" departPos="5.10" departSpeed="0.00" departDelay="4.00" arrival="270.00" arrivalLane="B3E2_0" arrivalPos="496.00" arrivalSpeed="11.48" duration="238.00" routeLength="2495.93" waitingTime="0.00" waitingCount="0" stopTime="0.00" timeLoss="20.50" rerouteNo="0" devices="tripinfo_6.4" vType="DEFAULT_VEHTYPE" speedFactor="0.83" vaporized=""/>
    <tripinfo id="6.5" depart="41.00" departLane="N1A1_0" departPos="5.10" departSpeed="0.00" departDelay="1.00" arrival="272.00" arrivalLane="B3E2_0" arrivalPos="496.00" arrivalSpeed="11.96" duration="231.00" routeLength="2495.93" waitingTime="0.00" waitingCount="0" stopTime="0.00" timeLoss="38.00" rerouteNo="0" devices="tripinfo_6.5" vType="DEFAULT_VEHTYPE" speedFactor="0.94" vaporized=""/>
    <tripinfo id="3.3" depart="129.00" departLane="N3A3_0" departPos="5.10" departSpeed="0.00" departDelay="0.00" arrival="280.00" arrivalLane="B3S3_0" arrivalPos="492.80" arrivalSpeed="15.33" duration="151.00" routeLength="1494.90" waitingTime="42.00" waitingCount="2" stopTime="0.00" timeLoss="58.80" rerouteNo="0" devices="tripinfo_3.3" vType="DEFAULT_VEHTYPE" speedFactor="1.18" vaporized=""/>
    <tripinfo id="6.6" depart="44.00" departLane="N1A1_0" departPos="5.10" departSpeed="0.00" departDelay="2.00" arrival="281.00" arrivalLane="B3E2_0" arrivalPos="496.00" arrivalSpeed="11.41" duration="237.00" routeLength="2495.93" waitingTime="7.00" waitingCount="1" stopTime="0.00" timeLoss="26.18" rerouteNo="0" devices="tripinfo_6.6" vType="DEFAULT_VEHTYPE" speedFactor="0.86" vaporized=""/>
    <tripinfo id="6.7" depart="47.00" departLane="N1A1_0" departPos="5.10" departSpeed="0.00" departDelay="2.00" arrival="283.00" arrivalLane="B3E2_0" arrivalPos="496.00" arrivalSpeed="14.19" duration="236.00" routeLength="2495.93" waitingTime="4.00" waitingCount="1" stopTime="0.00" timeLoss="69.95" rerouteNo="0" devices="tripinfo_6.7" vType="DEFAULT_VEHTYPE" speedFactor="1.09" vaporized=""/>
    <tripinfo id="6.8" depart="74.00" departLane="N1A1_0" departPos="5.10" departSpeed="0.00" departDelay="0.00" arrival="284.00" arrivalLane="B3E2_0" arrivalPos="496.00" arrivalSpeed="15.19" duration="210.00" routeLength="2495.93" waitingTime="0.00" waitingCount="0" stopTime="0.00" timeLoss="49.41" rerouteNo="0" devices="tripinfo_6.8" vType="DEFAULT_VEHTYPE" speedFactor="1.12" vaporized=""/>
    <tripinfo id="5.0" depart="117.00" departLane="W2B1_0" departPos="5.10" departSpeed="0.00" departDelay="0.00" arrival="304.00" arrivalLane="B3E2_0" arrivalPos="496.00" arrivalSpeed="11.33" duration="187.00" routeLength="1994.90" waitingTime="2.00" waitingCount="1" stopTime="0.00" timeLoss="22.36" rerouteNo="0" devices="tripinfo_5.0" vType="DEFAULT_VEHTYPE" speedFactor="0.87" vaporized=""/>
    <tripinfo id="2.4" depart="151.00" departLane="N2A2_0" departPos="5.10" departSpeed="0.00" departDelay="0.00" arrival="304.00" arrivalLane="B2S2_0" arrivalPos="492.80" arrivalSpeed="13.23" duration="153.00" routeLength="1494.90" waitingTime="24.00" waitingCount="2" stopTime="0.00" timeLoss="42.25" rerouteNo="0" devices="tripinfo_2.4" vType="DEFAULT_VEHTYPE" speedFactor="0.97" vaporized=""/>
    <tripinfo id="6.9" depart="84.00" departLane="N1A1_0" departPos="5.10" departSpeed="0.00" departDelay="0.00" arrival="312.00" arrivalLane="B3E2_0" arrivalPos="496.00" arrivalSpeed="11.69" duration="228.00" routeLength="2495.93" waitingTime="3.00" waitingCount="1" stopTime="0.00" timeLoss="22.67" rerouteNo="0" devices="tripinfo_6.9" vType="DEFAULT_VEHTYPE" speedFactor="0.88" vaporized=""/>
    <tripinfo id="6.10" depart="92.00" departLane="N1A1_0" departPos="5.10" departSpeed="0.00" departDelay="0.00" arrival="320.00" arrivalLane="B3E2_0" arrivalPos="496.00" arrivalSpeed="12.93" duration="228.00" routeLength="2495.93" waitingTime="5.00" waitingCount="1" stopTime="0.00" timeLoss="34.88" rerouteNo="0" devices="tripinfo_6.10" vType="DEFAULT_VEHTYPE" speedFactor="0.94" vaporized=""/>
    <tripinfo id="6.11" depart="95.00" departLane="N1A1_0" departPos="5.10" departSpeed="0.00" departDelay="2.00" arrival="322.00" arrivalLane="B3E2_0" arrivalPos="496.00" arrivalSpeed="15.10" duration="227.00" routeLength="2495.93" waitingTime="3.00" waitingCount="1" stopTime="0.00" timeLoss="70.92" rerouteNo="0" devices="tripinfo_6.11" vType="DEFAULT_VEHTYPE" speedFactor="1.16" vaporized=""/>
    <tripinfo id="4.1" depart="123.00" departLane="W1A1_0" departPos="5.10" departSpeed="0.00" departDelay="0.00" arrival="323.00" arrivalLane="A3E1_0" arrivalPos="496.00" arrivalSpeed="12.86" duration="200.00" routeLength="1994.90" waitingTime="26.00" waitingCount="2" stopTime="0.00" timeLoss="45.02" rerouteNo="0" devices="tripinfo_4.1" vType="DEFAULT_VEHTYPE" speedFactor="0.93" vaporized=""/>
    <tripinfo id="6.12" depart="100.00" departLane="N1A1_0" departPos="5.10" departSpeed="0.00" departDelay="0.00" arrival="324.00" arrivalLane="B3E2_0" arrivalPos="496.00" arrivalSpeed="13.71" duration="224.00" routeLength="2495.93" waitingTime="2.00" waitingCount="1" stopTime="0.00" timeLoss="46.15" rerouteNo="0" devices="tripinfo_6.12" vType="DEFAULT_VEHTYPE" speedFactor="1.02" vaporized=""/>
    <tripinfo id="6.13" depart="107.00" departLane="N1A1_0" departPos="5.10" departSpeed="0.00" departDelay="0.00" arrival="326.00" arrivalLane="B3E2_0" arrivalPos="496.00" arrivalSpeed="13.19" duration="219.00" routeLength="2495.93" waitingTime="4.00" waitingCount="1" stopTime="0.00" timeLoss="33.32" rerouteNo="0" devices="tripinfo_6.13" vType="DEFAULT_VEHTYPE" speedFactor="0.98" vaporized=""/>
    <tripinfo id="6.14" depart="110.00" departLane="N1A1_0" departPos="5.10" departSpeed="0.00" departDelay="1.00" arrival="338.00" arrivalLane="B3E2_0" arrivalPos="496.00" arrivalSpeed="11.23" duration="228.00" routeLength="2495.93" waitingTime="5.00" waitingCount="1" stopTime="0.00" timeLoss="25.25" rerouteNo="0" devices="tripinfo_6.14" vType="DEFAULT_VEHTYPE" speedFactor="0.89" vaporized=""/>
    <tripinfo id="4.2" depart="198.00" departLane="W1A1_0" departPos="5.10" departSpeed="0.00" departDelay="0.00" arrival="345.00" arrivalLane="A3E1_0" arrivalPos="496.00" arrivalSpeed="14.36" duration="147.00" routeLength="1994.90" waitingTime="0.00" waitingCount="0" stopTime="0.00" timeLoss="14.73" rerouteNo="0" devices="tripinfo_4.2" vType="DEFAULT_VEHTYPE" speedFactor="1.09" vaporized=""/>
    <tripinfo id="6.15" depart="113.00" departLane="N1A1_0" departPos="5.10" departSpeed="0.00" departDelay="3.00" arrival="363.00" arrivalLane="B3E2_0" arrivalPos="496.00" arrivalSpeed="11.29" duration="250.00" routeLength="2495.93" waitingTime="5.00" waitingCount="1" stopTime="0.00" timeLoss="31.26" rerouteNo="0" devices="tripinfo_6.15" vType="DEFAULT_VEHTYPE" speedFactor="0.83" vaporized=""/>
    <tripinfo id="6.16" depart="117.00" departLane="N1A1_0" departPos="5.10" departSpeed="0.00" departDelay="0.00" arrival="365.00" arrivalLane="B3E2_0" arrivalPos="496.00" arrivalSpeed="11.74" duration="248.00" routeLength="2495.93" waitingTime="3.00" waitingCount="1" stopTime="0.00" timeLoss="50.84" rerouteNo="0" devices="tripinfo_6.16" vType="DEFAULT_VEHTYPE" speedFactor="0.92" vaporized=""/>
    <tripinfo id="6.17" depart="120.00" departLane="N1A1_0" departPos="5.10" departSpeed="0.00" departDelay="0.00" arrival="367.00" arrivalLane="B3E2_0" arrivalPos="496.00" arrivalSpeed="12.56" duration="247.00" routeLength="2495.93" waitingTime="5.00" waitingCount="2" stopTime="0.00" timeLoss="56.41" rerouteNo="0" devices="tripinfo_6.17" vType="DEFAULT_VEHTYPE" speedFactor="0.95" vaporized=""/>
    <tripinfo id="6.18" depart="123.00" departLane="N1A1_0" departPos="5.10" departSpeed="0.00" departDelay="2.00" arrival="368.00" arrivalLane="B3E2_0" arrivalPos="496.00" arrivalSpeed="13.35" duration="245.00" routeLength="2495.93" waitingTime="4.00" waitingCount="1" stopTime="0.00" timeLoss="85.26" rerouteNo="0" devices="tripinfo_6.18" vType="DEFAULT_VEHTYPE" speedFactor="1.13" vaporized=""/>
    <tripinfo id="6.19" depart="129.00" departLane="N1A1_0" departPos="5.10" departSpeed="0.00" departDelay="0.00" arrival="370.00" arrivalLane="B3E2_0" arrivalPos="496.00" arrivalSpeed="15.48" duration="241.00" routeLength="2495.93" waitingTime="9.00" waitingCount="2" stopTime="0.00" timeLoss="84.36" rerouteNo="0" devices="tripinfo_6.19" vType="DEFAULT_VEHTYPE" speedFactor="1.15" vaporized=""/>
    <tripinfo id="3.4" depart="216.00" departLane="N3A3_0" departPos="5.10" departSpeed="0.00" departDelay="0.00" arrival="372.00" arrivalLane="B3S3_0" arrivalPos="492.80" arrivalSpeed="11.30" duration="156.00" routeLength="1494.90" waitingTime="16.00" waitingCount="1" stopTime="0.00" timeLoss="32.37" rerouteNo="0" devices="tripinfo_3.4" vType="DEFAULT_VEHTYPE" speedFactor="0.88" vaporized=""/>
    <tripinfo id="6.20" depart="140.00" departLane="N1A1_0" departPos="5.10" departSpeed="0.00" departDelay="0.00" arrival="374.00" arrivalLane="B3E2_0" arrivalPos="496.00" arrivalSpeed="12.53" duration="234.00" routeLength="2495.93" waitingTime="6.00" waitingCount="2" stopTime="0.00" timeLoss="51.74" rerouteNo="0" devices="tripinfo_6.20" vType="DEFAULT_VEHTYPE" speedFactor="0.99" vaporized=""/>
    <tripinfo id="6.21" depart="146.00" departLane="N1A1_0" departPos="5.10" departSpeed="0.00" departDelay="0.00" arrival="375.00" arrivalLane="B3E2_0" arrivalPos="496.00" arrivalSpeed="14.03" duration="229.00" routeLength="2495.93" waitingTime="3.00" waitingCount="2" stopTime="0.00" timeLoss="52.22" rerouteNo="0" devices="tripinfo_6.21" vType="DEFAULT_VEHTYPE" speedFactor="1.02" vaporized=""/>
    <tripinfo id="5.1" depart="200.00" departLane="W2B1_0" departPos="5.10" departSpeed="0.00" departDelay="0.00" arrival="377.00" arrivalLane="B3E2_0" arrivalPos="496.00" arrivalSpeed="14.17" duration="177.00" routeLength="1994.90" waitingTime="6.00" waitingCount="2" stopTime="0.00" timeLoss="38.20" rerouteNo="0" devices="tripinfo_5.1" vType="DEFAULT_VEHTYPE" speedFactor="1.04" vaporized=""/>
    <tripinfo id="6.22" depart="176.00" departLane="N1A1_0" departPos="5.10" departSpeed="0.00" departDelay="0.00" arrival="379.00" arrivalLane="B3E2_0" arrivalPos="496.00" arrivalSpeed="15.30" duration="203.00" routeLength="2495.93" waitingTime="9.00" waitingCount="3" stopTime="0.00" timeLoss="49.41" rerouteNo="0" devices="tripinfo_6.22" vType="DEFAULT_VEHTYPE" speedFactor="1.18" vaporized=""/>
    <tripinfo id="6.23" depart="184.00" departLane="N1A1_0" departPos="5.10" departSpeed="0.00" departDelay="0.00" arrival="380.00" arrivalLane="B3E2_0" arrivalPos="496.00" arrivalSpeed="14.81" duration="196.00" routeLength="2495.93" waitingTime="2.00" waitingCount="2" stopTime="0.00" timeLoss="32.40" rerouteNo="0" devices="tripinfo_6.23" vType="DEFAULT_VEHTYPE" speedFactor="1.10" vaporized=""/>
    <tripinfo id="5.2" depart="203.00" departLane="W2B1_0" departPos="5.10" departSpeed="0.00" departDelay="1.00" arrival="385.00" arrivalLane="B3E2_0" arrivalPos="496.00" arrivalSpeed="13.32" duration="182.00" routeLength="1994.90" waitingTime="26.00" waitingCount="2" stopTime="0.00" timeLoss="44.20" rerouteNo="0" devices="tripinfo_5.2" vType="DEFAULT_VEHTYPE" speedFactor="1.04" vaporized=""/>
    <tripinfo id="6.24" depart="188.00" departLane="N1A1_0" departPos="5.10" departSpeed="0.00" departDelay="0.00" arrival="409.00" arrivalLane="B3E2_0" arrivalPos="496.00" arrivalSpeed="11.77" duration="221.00" routeLength="2495.93" waitingTime="2.00" waitingCount="1" stopTime="0.00" timeLoss="20.16" rerouteNo="0" devices="tripinfo_6.24" vType="DEFAULT_VEHTYPE" speedFactor="0.90" vaporized=""/>
    <tripinfo id="6.25" depart="191.00" departLane="N1A1_0" departPos="5.10" departSpeed="0.00" departDelay="1.00" arrival="411.00" arrivalLane="B3E2_0" arrivalPos="496.00" arrivalSpeed="13.92" duration="220.00" routeLength="2495.93" waitingTime="2.00" waitingCount="1" stopTime="0.00" timeLoss="44.46" rerouteNo="0" devices="tripinfo_6.25" vType="DEFAULT_VEHTYPE" speedFactor="1.03" vaporized=""/>
    <tripinfo id="1.3" depart="286.00" departLane="N1A1_0" departPos="5.10" departSpeed="0.00" departDelay="3.00" arrival="412.00" arrivalLane="B1S1_0" arrivalPos="492.80" arrivalSpeed="13.62" duration="126.00" routeLength="1494.90" waitingTime="0.00" waitingCount="0" stopTime="0.00" timeLoss="21.78" rerouteNo="0" devices="tripinfo_1.3" vType="DEFAULT_VEHTYPE" speedFactor="1.04" vaporized=""/>
    <tripinfo id="6.26" depart="194.00" departLane="N1A1_0" departPos="5.10" departSpeed="0.00" departDelay="1.00" arrival="413.00" arrivalLane="B3E2_0" arrivalPos="496.00" arrivalSpeed="12.66" duration="219.00" routeLength="2495.93" waitingTime="2.00" waitingCount="1" stopTime="0.00" timeLoss="30.03" rerouteNo="0" devices="tripinfo_6.26" vType="DEFAULT_VEHTYPE" speedFactor="0.96" vaporized=""/>
    <tripinfo id="6.27" depart="204.00" departLane="N1A1_0" departPos="5.10" departSpeed="0.00" departDelay="0.00" arrival="414.00" arrivalLane="B3E2_0" arrivalPos="496.00" arrivalSpeed="13.70" duration="210.00" routeLength="2495.93" waitingTime="0.00" waitingCount="0" stopTime="0.00" timeLoss="43.86" rerouteNo="0" devices="tripinfo_6.27" vType="DEFAULT_VEHTYPE" speedFactor="1.09" vaporized=""/>
    <tripinfo id="6.28" depart="207.00" departLane="N1A1_0" departPos="5.10" departSpeed="0.00" departDelay="2.00" arrival="416.00" arrivalLane="B3E2_0" arrivalPos="496.00" arrivalSpeed="13.12" duration="209.00" routeLength="2495.93" waitingTime="0.00" waitingCount="0" stopTime="0.00" timeLoss="28.13" rerouteNo="0" devices="tripinfo_6.28" vType="DEFAULT_VEHTYPE" speedFactor="1.00" vaporized=""/>
    <tripinfo id="3.5" depart="271.00" departLane="N3A3_0" departPos="5.10" departSpeed="0.00" departDelay="0.00" arrival="423.00" arrivalLane="B3S3_0" arrivalPos="492.80" arrivalSpeed="11.83" duration="152.00" routeLength="1494.90" waitingTime="21.00" waitingCount="1" stopTime="0.00" timeLoss="36.54" rerouteNo="0" devices="tripinfo_3.5" vType="DEFAULT_VEHTYPE" speedFactor="0.94" vaporized=""/>
    <tripinfo id="1.4" depart="312.00" departLane="N1A1_0" departPos="5.10" departSpeed="0.00" departDelay="0.00" arrival="431.00" arrivalLane="B1S1_0" arrivalPos="492.80" arrivalSpeed="13.37" duration="119.00" routeLength="1494.90" waitingTime="0.00" waitingCount="0" stopTime="0.00" timeLoss="7.67" rerouteNo="0" devices="tripinfo_1.4" vType="DEFAULT_VEHTYPE" speedFactor="0.97" vaporized=""/>
    <tripinfo id="5.3" depart="212.00" departLane="W2B1_0" departPos="5.10" departSpeed="0.00" departDelay="0.00" arrival="436.00" arrivalLane="B3E2_0" arrivalPos="496.00" arrivalSpeed="11.30" duration="224.00" routeLength="1994.90" waitingTime="40.00" waitingCount="2" stopTime="0.00" timeLoss="64.36" rerouteNo="0" devices="tripinfo_5.3" vType="DEFAULT_VEHTYPE" speedFactor="0.90" vaporized=""/>
    <tripinfo id="1.5" depart="324.00" departLane="N1A1_0" departPos="5.10" departSpeed="0.00" departDelay="2.00" arrival="455.00" arrivalLane="B1S1_0" arrivalPos="492.80" arrivalSpeed="13.22" duration="131.00" routeLength="1494.90" waitingTime="5.00" waitingCount="1" stopTime="0.00" timeLoss="21.24" rerouteNo="0" devices="tripinfo_1.5" vType="DEFAULT_VEHTYPE" speedFactor="0.98" vaporized=""/>
    <tripinfo id="6.29" depart="221.00" departLane="N1A1_0" departPos="5.10" departSpeed="0.00" departDelay="0.00" arrival="459.00" arrivalLane="B3E2_0" arrivalPos="496.00" arrivalSpeed="11.61" duration="238.00" routeLength="2495.93" waitingTime="2.00" waitingCount="1" stopTime="0.00" timeLoss="25.72" rerouteNo="0" devices="tripinfo_6.29" vType="DEFAULT_VEHTYPE" speedFactor="0.85" vaporized=""/>
    <tripinfo id="1.6" depart="332.00" departLane="N1A1_0" departPos="5.10" departSpeed="0.00" departDelay="0.00" arrival="460.00" arrivalLane="B1S1_0" arrivalPos="492.80" arrivalSpeed="12.93" duration="128.00" routeLength="1494.90" waitingTime="2.00" waitingCount="1" stopTime="0.00" timeLoss="17.48" rerouteNo="0" devices="tripinfo_1.6" vType="DEFAULT_VEHTYPE" speedFactor="0.98" vaporized=""/>
    <tripinfo id="6.30" depart="225.00" departLane="N1A1_0" departPos="5.10" departSpeed="0.00" departDelay="0.00" arrival="461.00" arrivalLane="B3E2_0" arrivalPos="496.00" arrivalSpeed="11.53" duration="236.00" routeLength="2495.93" waitingTime="1.00" waitingCount="1" stopTime="0.00" timeLoss="25.09" rerouteNo="0" devices="tripinfo_6.30" vType="DEFAULT_VEHTYPE" speedFactor="0.85" vaporized=""/>
    <tripinfo id="6.31" depart="228.00" departLane="N1A1_0" departPos="5.10" departSpeed="0.00" departDelay="2.00" arrival="463.00" arrivalLane="B3E2_0" arrivalPos="496.00" arrivalSpeed="15.59" duration="235.00" routeLength="2495.93" waitingTime="0.00" waitingCount="0" stopTime="0.00" timeLoss="79.80" rerouteNo="0" devices="tripinfo_6.31" vType="DEFAULT_VEHTYPE" speedFactor="1.17" vaporized=""/>
    <tripinfo id="6.32" depart="231.00" departLane="N1A1_0" departPos="5.10" departSpeed="0.00" departDelay="0.00" arrival="465.00" arrivalLane="B3E2_0" arrivalPos="496.00" arrivalSpeed="12.85" duration="234.00" routeLength="2495.93" waitingTime="4.00" waitingCount="1" stopTime="0.00" timeLoss="55.92" rerouteNo="0" devices="tripinfo_6.32" vType="DEFAULT_VEHTYPE" speedFactor="1.02" vaporized=""/>
    <tripinfo id="1.7" depart="347.00" departLane="N1A1_0" departPos="5.10" departSpeed="0.00" departDelay="0.00" arrival="465.00" arrivalLane="B1S1_0" arrivalPos="492.80" arrivalSpeed="13.21" duration="118.00" routeLength="1494.90" waitingTime="0.00" waitingCount="0" stopTime="0.00" timeLoss="11.64" rerouteNo="0" devices="tripinfo_1.7" vType="DEFAULT_VEHTYPE" speedFactor="1.02" vaporized=""/>
    <tripinfo id="5.4" depart="264.00" departLane="W2B1_0" departPos="5.10" departSpeed="0.00" departDelay="0.00" arrival="466.00" arrivalLane="B3E2_0" arrivalPos="496.00" arrivalSpeed="14.62" duration="202.00" routeLength="1994.90" waitingTime="25.00" waitingCount="2" stopTime="0.00" timeLoss="73.40" rerouteNo="0" devices="tripinfo_5.4" vType="DEFAULT_VEHTYPE" speedFactor="1.12" vaporized=""/>
    <tripinfo id="6.33" depart="235.00" departLane="N1A1_0" departPos="5.10" departSpeed="0.00" departDelay="0.00" arrival="468.00" arrivalLane="B3E2_0" arrivalPos="496.00" arrivalSpeed="14.20" duration="233.00" routeLength="2495.93" waitingTime="9.00" waitingCount="2" stopTime="0.00" timeLoss="67.99" rerouteNo="0" devices="tripinfo_6.33" vType="DEFAULT_VEHTYPE" speedFactor="1.10" vaporized=""/>
    <tripinfo id="6.34" depart="241.00" departLane="N1A1_0" departPos="5.10" departSpeed="0.00" departDelay="0.00" arrival="470.00" arrivalLane="B3E2_0" arrivalPos="496.00" arrivalSpeed="13.56" duration="229.00" routeLength="2495.93" waitingTime="6.00" waitingCount="2" stopTime="0.00" timeLoss="48.31" rerouteNo="0" devices="tripinfo_6.34" vType="DEFAULT_VEHTYPE" speedFactor="1.00" vaporized=""/>
    <tripinfo id="6.35" depart="244.00" departLane="N1A1_0" departPos="5.10" departSpeed="0.00" departDelay="2.00" arrival="472.00" arrivalLane="B3E2_0" arrivalPos="496.00" arrivalSpeed="13.56" duration="228.00" routeLength="2495.93" waitingTime="4.00" waitingCount="1" stopTime="0.00" timeLoss="45.75" rerouteNo="0" devices="tripinfo_6.35" vType="DEFAULT_VEHTYPE" speedFactor="1.00" vaporized=""/>
    <tripinfo id="6.36" depart="247.00" departLane="N1A1_0" departPos="5.10" departSpeed="0.00" departDelay="4.00" arrival="474.00" arrivalLane="B3E2_0" arrivalPos="496.00" arrivalSpeed="12.27" duration="227.00" routeLength="2495.93" waitingTime="2.00" waitingCount="1" stopTime="0.00" timeLoss="25.56" rerouteNo="0" devices="tripinfo_6.36" vType="DEFAULT_VEHTYPE" speedFactor="0.90" vaporized=""/>
    <tripinfo id="6.37" depart="250.00" departLane="N1A1_0" departPos="5.10" departSpeed="0.00" departDelay="5.00" arrival="476.00" arrivalLane="B3E2_0" arrivalPos="496.00" arrivalSpeed="14.63" duration="226.00" routeLength="2495.93" waitingTime="5.00" waitingCount="2" stopTime="0.00" timeLoss="67.44" rerouteNo="0" devices="tripinfo_6.37" vType="DEFAULT_VEHTYPE" speedFactor="1.14" vaporized=""/>
    <tripinfo id="6.38" depart="253.00" departLane="N1A1_0" departPos="5.10" departSpeed="0.00" departDelay="6.00" arrival="480.00" arrivalLane="B3E2_0" arrivalPos="496.00" arrivalSpeed="13.49" duration="227.00" routeLength="2495.93" waitingTime="3.00" waitingCount="2" stopTime="0.00" timeLoss="50.33" rerouteNo="0" devices="tripinfo_6.38" vType="DEFAULT_VEHTYPE" speedFactor="1.02" vaporized=""/>
    <tripinfo id="6.39" depart="256.00" departLane="N1A1_0" departPos="5.10" departSpeed="0.00" departDelay="8.00" arrival="485.00" arrivalLane="B3E2_0" arrivalPos="496.00" arrivalSpeed="12.35" duration="229.00" routeLength="2495.93" waitingTime="1.00" waitingCount="1" stopTime="0.00" timeLoss="42.32" rerouteNo="0" devices="tripinfo_6.39" vType="DEFAULT_VEHTYPE" speedFactor="0.97" vaporized=""/>
    <tripinfo id="2.5" depart="376.00" departLane="N2A2_0" departPos="5.10" departSpeed="0.00" departDelay="0.00" arrival="490.00" arrivalLane="B2S2_0" arrivalPos="492.80" arrivalSpeed="14.39" duration="114.00" routeLength="1494.90" waitingTime="0.00" waitingCount="0" stopTime="0.00" timeLoss="14.96" rerouteNo="0" devices="tripinfo_2.5" vType="DEFAULT_VEHTYPE" speedFactor="1.09" vaporized=""/>
    <tripinfo id="5.5" depart="275.00" departLane="W2B1_0" departPos="5.10" departSpeed="0.00" departDelay="0.00" arrival="491.00" arrivalLane="B3E2_0" arrivalPos="496.00" arrivalSpeed="11.34" duration="216.00" routeLength="1994.90" waitingTime="27.00" waitingCount="2" stopTime="0.00" timeLoss="53.06" rerouteNo="0" devices="tripinfo_5.5" vType="DEFAULT_VEHTYPE" speedFactor="0.88" vaporized=""/>
    <tripinfo id="6.40" depart="263.00" departLane="N1A1_0" departPos="5.10" departSpeed="0.00" departDelay="0.00" arrival="493.00" arrivalLane="B3E2_0" arrivalPos="496.00" arrivalSpeed="14.33" duration="230.00" routeLength="2495.93" waitingTime="5.00" waitingCount="1" stopTime="0.00" timeLoss="63.03" rerouteNo="0" devices="tripinfo_6.40" vType="DEFAULT_VEHTYPE" speedFactor="1.08" vaporized=""/>
    <tripinfo id="6.41" depart="269.00" departLane="N1A1_0" departPos="5.10" departSpeed="0.00" departDelay="0.00" arrival="495.00" arrivalLane="B3E2_0" arrivalPos="496.00" arrivalSpeed="13.97" duration="226.00" routeLength="2495.93" waitingTime="3.00" waitingCount="1" stopTime="0.00" timeLoss="47.86" rerouteNo="0" devices="tripinfo_6.41" vType="DEFAULT_VEHTYPE" speedFactor="1.02" vaporized=""/>
    <tripinfo id="6.42" depart="272.00" departLane="N1A1_0" departPos="5.10" departSpeed="0.00" departDelay="2.00" arrival="497.00" arrivalLane="B3E2_0" arrivalPos="496.00" arrivalSpeed="13.62" duration="225.00" routeLength="2495.93" waitingTime="3.00" waitingCount="1" stopTime="0.00" timeLoss="41.53" rerouteNo="0" devices="tripinfo_6.42" vType="DEFAULT_VEHTYPE" speedFactor="0.99" vaporized=""/>