<?xml version="1.0" encoding="UTF-8"?>

<!-- generated on 2022-01-12 23:35:00 by Eclipse SUMO sumo Version 1.10.0
<configuration xmlns:xsi="http://www.w3.org/2001/XMLSchema-instance" xsi:noNamespaceSchemaLocation="http://sumo.dlr.de/xsd/sumoConfiguration.xsd">

    <input>
        <net-file value="C:\Users\Marcus\Desktop\Hauptordner\Studium\Masterstudium\3.%20Semester\Projekt_Sim-Opt\Traffic_Simulation\2X3GridNetwork\2x3net.net.xml"/>
        <route-files value="C:\Users\Marcus\Desktop\Hauptordner\Studium\Masterstudium\3.%20Semester\Projekt_Sim-Opt\Traffic_Simulation\2X3GridNetwork\2x3Routes.xml"/>
        <additional-files value="C:\Users\Marcus\Desktop\Hauptordner\Studium\Masterstudium\3.%20Semester\Projekt_Sim-Opt\Traffic_Simulation\2X3GridNetwork\additionals.xml"/>
    </input>

    <output>
        <tripinfo-output value="tripinfo.xml"/>
        <statistic-output value="statistics.xml"/>
    </output>

    <report>
        <no-step-log value="true"/>
    </report>

    <traci_server>
        <remote-port value="50905"/>
    </traci_server>

</configuration>
-->

<tripinfos xmlns:xsi="http://www.w3.org/2001/XMLSchema-instance" xsi:noNamespaceSchemaLocation="http://sumo.dlr.de/xsd/tripinfo_file.xsd">
    <tripinfo id="2.0" depart="13.00" departLane="N2A2_0" departPos="5.10" departSpeed="0.00" departDelay="0.00" arrival="203.00" arrivalLane="B2S2_0" arrivalPos="492.80" arrivalSpeed="9.18" duration="190.00" routeLength="1494.90" waitingTime="22.00" waitingCount="1" stopTime="0.00" timeLoss="39.81" rerouteNo="0" devices="tripinfo_2.0" vType="paperVehicle" speedFactor="1.03" vaporized=""/>
    <tripinfo id="1.0" depart="46.00" departLane="N1A1_0" departPos="5.10" departSpeed="0.00" departDelay="0.00" arrival="223.00" arrivalLane="B1S1_0" arrivalPos="492.80" arrivalSpeed="9.71" duration="177.00" routeLength="1494.90" waitingTime="5.00" waitingCount="1" stopTime="0.00" timeLoss="26.80" rerouteNo="0" devices="tripinfo_1.0" vType="paperVehicle" speedFactor="1.12" vaporized=""/>
    <tripinfo id="1.1" depart="71.00" departLane="N1A1_0" departPos="5.10" departSpeed="0.00" departDelay="0.00" arrival="234.00" arrivalLane="B1S1_0" arrivalPos="492.80" arrivalSpeed="9.43" duration="163.00" routeLength="1494.90" waitingTime="0.00" waitingCount="0" stopTime="0.00" timeLoss="12.71" rerouteNo="0" devices="tripinfo_1.1" vType="paperVehicle" speedFactor="0.94" vaporized=""/>
    <tripinfo id="3.0" depart="78.00" departLane="N3A3_0" departPos="5.10" departSpeed="0.00" departDelay="0.00" arrival="263.00" arrivalLane="B3S3_0" arrivalPos="492.80" arrivalSpeed="8.96" duration="185.00" routeLength="1494.90" waitingTime="19.00" waitingCount="1" stopTime="0.00" timeLoss="35.38" rerouteNo="0" devices="tripinfo_3.0" vType="paperVehicle" speedFactor="1.16" vaporized=""/>
    <tripinfo id="3.1" depart="102.00" departLane="N3A3_0" departPos="5.10" departSpeed="0.00" departDelay="0.00" arrival="265.00" arrivalLane="B3S3_0" arrivalPos="492.80" arrivalSpeed="9.59" duration="163.00" routeLength="1494.90" waitingTime="0.00" waitingCount="0" stopTime="0.00" timeLoss="13.45" rerouteNo="0" devices="tripinfo_3.1" vType="paperVehicle" speedFactor="0.83" vaporized=""/>
    <tripinfo id="1.2" depart="108.00" departLane="N1A1_0" departPos="5.10" departSpeed="0.00" departDelay="0.00" arrival="270.00" arrivalLane="B1S1_0" arrivalPos="492.80" arrivalSpeed="9.59" duration="162.00" routeLength="1494.90" waitingTime="0.00" waitingCount="0" stopTime="0.00" timeLoss="11.98" rerouteNo="0" devices="tripinfo_1.2" vType="paperVehicle" speedFactor="0.87" vaporized=""/>
    <tripinfo id="3.2" depart="108.00" departLane="N3A3_0" departPos="5.10" departSpeed="0.00" departDelay="0.00" arrival="270.00" arrivalLane="B3S3_0" arrivalPos="492.80" arrivalSpeed="8.92" duration="162.00" routeLength="1494.90" waitingTime="0.00" waitingCount="0" stopTime="0.00" timeLoss="12.05" rerouteNo="0" devices="tripinfo_3.2" vType="paperVehicle" speedFactor="0.92" vaporized=""/>
    <tripinfo id="6.0" depart="3.00" departLane="N1A1_0" departPos="5.10" departSpeed="0.00" departDelay="0.00" arrival="289.00" arrivalLane="B3E2_0" arrivalPos="496.00" arrivalSpeed="9.89" duration="286.00" routeLength="2495.93" waitingTime="7.00" waitingCount="2" stopTime="0.00" timeLoss="35.57" rerouteNo="0" devices="tripinfo_6.0" vType="paperVehicle" speedFactor="1.06" vaporized=""/>
    <tripinfo id="5.0" depart="45.00" departLane="W2B1_0" departPos="5.10" departSpeed="0.00" departDelay="0.00" arrival="291.00" arrivalLane="B3E2_0" arrivalPos="496.00" arrivalSpeed="9.18" duration="246.00" routeLength="1994.90" waitingTime="17.00" waitingCount="2" stopTime="0.00" timeLoss="46.43" rerouteNo="0" devices="tripinfo_5.0" vType="paperVehicle" speedFactor="1.05" vaporized=""/>
    <tripinfo id="6.1" depart="6.00" departLane="N1A1_0" departPos="5.10" departSpeed="0.00" departDelay="1.00" arrival="305.00" arrivalLane="B3E2_0" arrivalPos="496.00" arrivalSpeed="9.24" duration="299.00" routeLength="2495.93" waitingTime="24.00" waitingCount="1" stopTime="0.00" timeLoss="48.66" rerouteNo="0" devices="tripinfo_6.1" vType="paperVehicle" speedFactor="0.94" vaporized=""/>
    <tripinfo id="6.2" depart="9.00" departLane="N1A1_0" departPos="5.10" departSpeed="0.00" departDelay="2.00" arrival="307.00" arrivalLane="B3E2_0" arrivalPos="496.00" arrivalSpeed="9.95" duration="298.00" routeLength="2495.93" waitingTime="24.00" waitingCount="1" stopTime="0.00" timeLoss="47.61" rerouteNo="0" devices="tripinfo_6.2" vType="paperVehicle" speedFactor="1.01" vaporized=""/>
    <tripinfo id="6.3" depart="12.00" departLane="N1A1_0" departPos="5.10" departSpeed="0.00" departDelay="1.00" arrival="309.00" arrivalLane="B3E2_0" arrivalPos="496.00" arrivalSpeed="9.01" duration="297.00" routeLength="2495.93" waitingTime="22.00" waitingCount="1" stopTime="0.00" timeLoss="47.12" rerouteNo="0" devices="tripinfo_6.3" vType="paperVehicle" speedFactor="1.08" vaporized=""/>
    <tripinfo id="6.4" depart="15.00" departLane="N1A1_0" departPos="5.10" departSpeed="0.00" departDelay="2.00" arrival="312.00" arrivalLane="B3E2_0" arrivalPos="496.00" arrivalSpeed="9.81" duration="297.00" routeLength="2495.93" waitingTime="21.00" waitingCount="1" stopTime="0.00" timeLoss="45.67" rerouteNo="0" devices="tripinfo_6.4" vType="paperVehicle" speedFactor="0.83" vaporized=""/>
    <tripinfo id="6.5" depart="20.00" departLane="N1A1_0" departPos="5.10" departSpeed="0.00" departDelay="0.00" arrival="315.00" arrivalLane="B3E2_0" arrivalPos="496.00" arrivalSpeed="9.22" duration="295.00" routeLength="2495.93" waitingTime="18.00" waitingCount="1" stopTime="0.00" timeLoss="44.69" rerouteNo="0" devices="tripinfo_6.5" vType="paperVehicle" speedFactor="1.05" vaporized=""/>
    <tripinfo id="6.6" depart="23.00" departLane="N1A1_0" departPos="5.10" departSpeed="0.00" departDelay="0.00" arrival="318.00" arrivalLane="B3E2_0" arrivalPos="496.00" arrivalSpeed="9.53" duration="295.00" routeLength="2495.93" waitingTime="17.00" waitingCount="1" stopTime="0.00" timeLoss="44.42" rerouteNo="0" devices="tripinfo_6.6" vType="paperVehicle" speedFactor="0.89" vaporized=""/>
    <tripinfo id="1.3" depart="131.00" departLane="N1A1_0" departPos="5.10" departSpeed="0.00" departDelay="0.00" arrival="319.00" arrivalLane="B1S1_0" arrivalPos="492.80" arrivalSpeed="9.55" duration="188.00" routeLength="1494.90" waitingTime="23.00" waitingCount="1" stopTime="0.00" timeLoss="38.43" rerouteNo="0" devices="tripinfo_1.3" vType="paperVehicle" speedFactor="1.15" vaporized=""/>
    <tripinfo id="6.7" depart="29.00" departLane="N1A1_0" departPos="5.10" departSpeed="0.00" departDelay="0.00" arrival="321.00" arrivalLane="B3E2_0" arrivalPos="496.00" arrivalSpeed="8.93" duration="292.00" routeLength="2495.93" waitingTime="12.00" waitingCount="1" stopTime="0.00" timeLoss="40.92" rerouteNo="0" devices="tripinfo_6.7" vType="paperVehicle" speedFactor="0.94" vaporized=""/>
    <tripinfo id="6.8" depart="32.00" departLane="N1A1_0" departPos="5.10" departSpeed="0.00" departDelay="2.00" arrival="324.00" arrivalLane="B3E2_0" arrivalPos="496.00" arrivalSpeed="9.77" duration="292.00" routeLength="2495.93" waitingTime="11.00" waitingCount="1" stopTime="0.00" timeLoss="41.54" rerouteNo="0" devices="tripinfo_6.8" vType="paperVehicle" speedFactor="0.86" vaporized=""/>
    <tripinfo id="6.9" depart="35.00" departLane="N1A1_0" departPos="5.10" departSpeed="0.00" departDelay="4.00" arrival="327.00" arrivalLane="B3E2_0" arrivalPos="496.00" arrivalSpeed="8.80" duration="292.00" routeLength="2495.93" waitingTime="9.00" waitingCount="1" stopTime="0.00" timeLoss="41.39" rerouteNo="0" devices="tripinfo_6.9" vType="paperVehicle" speedFactor="1.09" vaporized=""/>
    <tripinfo id="6.10" depart="43.00" departLane="N1A1_0" departPos="5.10" departSpeed="0.00" departDelay="0.00" arrival="329.00" arrivalLane="B3E2_0" arrivalPos="496.00" arrivalSpeed="9.15" duration="286.00" routeLength="2495.93" waitingTime="5.00" waitingCount="1" stopTime="0.00" timeLoss="34.94" rerouteNo="0" devices="tripinfo_6.10" vType="paperVehicle" speedFactor="1.03" vaporized=""/>
    <tripinfo id="6.11" depart="57.00" departLane="N1A1_0" departPos="5.10" departSpeed="0.00" departDelay="0.00" arrival="332.00" arrivalLane="B3E2_0" arrivalPos="496.00" arrivalSpeed="8.82" duration="275.00" routeLength="2495.93" waitingTime="0.00" waitingCount="0" stopTime="0.00" timeLoss="24.64" rerouteNo="0" devices="tripinfo_6.11" vType="paperVehicle" speedFactor="0.99" vaporized=""/>
    <tripinfo id="1.4" depart="146.00" departLane="N1A1_0" departPos="5.10" departSpeed="0.00" departDelay="2.00" arrival="332.00" arrivalLane="B1S1_0" arrivalPos="492.80" arrivalSpeed="9.74" duration="186.00" routeLength="1494.90" waitingTime="16.00" waitingCount="1" stopTime="0.00" timeLoss="35.68" rerouteNo="0" devices="tripinfo_1.4" vType="paperVehicle" speedFactor="0.97" vaporized=""/>
    <tripinfo id="6.12" depart="64.00" departLane="N1A1_0" departPos="5.10" departSpeed="0.00" departDelay="0.00" arrival="336.00" arrivalLane="B3E2_0" arrivalPos="496.00" arrivalSpeed="9.91" duration="272.00" routeLength="2495.93" waitingTime="0.00" waitingCount="0" stopTime="0.00" timeLoss="21.45" rerouteNo="0" devices="tripinfo_6.12" vType="paperVehicle" speedFactor="0.93" vaporized=""/>
    <tripinfo id="6.13" depart="67.00" departLane="N1A1_0" departPos="5.10" departSpeed="0.00" departDelay="2.00" arrival="339.00" arrivalLane="B3E2_0" arrivalPos="496.00" arrivalSpeed="9.35" duration="272.00" routeLength="2495.93" waitingTime="0.00" waitingCount="0" stopTime="0.00" timeLoss="20.86" rerouteNo="0" devices="tripinfo_6.13" vType="paperVehicle" speedFactor="0.88" vaporized=""/>
    <tripinfo id="6.14" depart="74.00" departLane="N1A1_0" departPos="5.10" departSpeed="0.00" departDelay="0.00" arrival="375.00" arrivalLane="B3E2_0" arrivalPos="496.00" arrivalSpeed="9.17" duration="301.00" routeLength="2495.93" waitingTime="26.00" waitingCount="1" stopTime="0.00" timeLoss="50.66" rerouteNo="0" devices="tripinfo_6.14" vType="paperVehicle" speedFactor="0.94" vaporized=""/>
    <tripinfo id="6.15" depart="79.00" departLane="N1A1_0" departPos="5.10" departSpeed="0.00" departDelay="0.00" arrival="377.00" arrivalLane="B3E2_0" arrivalPos="496.00" arrivalSpeed="9.52" duration="298.00" routeLength="2495.93" waitingTime="22.00" waitingCount="1" stopTime="0.00" timeLoss="47.64" rerouteNo="0" devices="tripinfo_6.15" vType="paperVehicle" speedFactor="1.02" vaporized=""/>
    <tripinfo id="2.1" depart="207.00" departLane="N2A2_0" departPos="5.10" departSpeed="0.00" departDelay="0.00" arrival="377.00" arrivalLane="B2S2_0" arrivalPos="492.80" arrivalSpeed="9.92" duration="170.00" routeLength="1494.90" waitingTime="3.00" waitingCount="1" stopTime="0.00" timeLoss="20.29" rerouteNo="0" devices="tripinfo_2.1" vType="paperVehicle" speedFactor="1.04" vaporized=""/>
    <tripinfo id="6.16" depart="92.00" departLane="N1A1_0" departPos="5.10" departSpeed="0.00" departDelay="0.00" arrival="379.00" arrivalLane="B3E2_0" arrivalPos="496.00" arrivalSpeed="8.86" duration="287.00" routeLength="2495.93" waitingTime="11.00" waitingCount="1" stopTime="0.00" timeLoss="37.08" rerouteNo="0" devices="tripinfo_6.16" vType="paperVehicle" speedFactor="1.01" vaporized=""/>
    <tripinfo id="6.17" depart="95.00" departLane="N1A1_0" departPos="5.10" departSpeed="0.00" departDelay="2.00" arrival="382.00" arrivalLane="B3E2_0" arrivalPos="496.00" arrivalSpeed="8.73" duration="287.00" routeLength="2495.93" waitingTime="9.00" waitingCount="1" stopTime="0.00" timeLoss="36.46" rerouteNo="0" devices="tripinfo_6.17" vType="paperVehicle" speedFactor="0.98" vaporized=""/>
    <tripinfo id="6.18" depart="98.00" departLane="N1A1_0" departPos="5.10" departSpeed="0.00" departDelay="3.00" arrival="385.00" arrivalLane="B3E2_0" arrivalPos="496.00" arrivalSpeed="8.95" duration="287.00" routeLength="2495.93" waitingTime="9.00" waitingCount="1" stopTime="0.00" timeLoss="36.33" rerouteNo="0" devices="tripinfo_6.18" vType="paperVehicle" speedFactor="0.89" vaporized=""/>
    <tripinfo id="3.3" depart="230.00" departLane="N3A3_0" departPos="5.10" departSpeed="0.00" departDelay="0.00" arrival="400.00" arrivalLane="B3S3_0" arrivalPos="492.80" arrivalSpeed="9.51" duration="170.00" routeLength="1494.90" waitingTime="3.00" waitingCount="1" stopTime="0.00" timeLoss="19.66" rerouteNo="0" devices="tripinfo_3.3" vType="paperVehicle" speedFactor="0.85" vaporized=""/>
    <tripinfo id="6.19" depart="112.00" departLane="N1A1_0" departPos="5.10" departSpeed="0.00" departDelay="0.00" arrival="425.00" arrivalLane="B3E2_0" arrivalPos="496.00" arrivalSpeed="8.74" duration="313.00" routeLength="2495.93" waitingTime="32.00" waitingCount="2" stopTime="0.00" timeLoss="61.99" rerouteNo="0" devices="tripinfo_6.19" vType="paperVehicle" speedFactor="0.95" vaporized=""/>
    <tripinfo id="6.20" depart="115.00" departLane="N1A1_0" departPos="5.10" departSpeed="0.00" departDelay="0.00" arrival="427.00" arrivalLane="B3E2_0" arrivalPos="496.00" arrivalSpeed="9.33" duration="312.00" routeLength="2495.93" waitingTime="30.00" waitingCount="2" stopTime="0.00" timeLoss="61.96" rerouteNo="0" devices="tripinfo_6.20" vType="paperVehicle" speedFactor="1.13" vaporized=""/>
    <tripinfo id="2.2" depart="227.00" departLane="N2A2_0" departPos="5.10" departSpeed="0.00" departDelay="0.00" arrival="428.00" arrivalLane="B2S2_0" arrivalPos="492.80" arrivalSpeed="9.42" duration="201.00" routeLength="1494.90" waitingTime="30.00" waitingCount="2" stopTime="0.00" timeLoss="51.18" rerouteNo="0" devices="tripinfo_2.2" vType="paperVehicle" speedFactor="0.88" vaporized=""/>
    <tripinfo id="6.21" depart="122.00" departLane="N1A1_0" departPos="5.10" departSpeed="0.00" departDelay="0.00" arrival="429.00" arrivalLane="B3E2_0" arrivalPos="496.00" arrivalSpeed="8.73" duration="307.00" routeLength="2495.93" waitingTime="27.00" waitingCount="1" stopTime="0.00" timeLoss="56.80" rerouteNo="0" devices="tripinfo_6.21" vType="paperVehicle" speedFactor="0.93" vaporized=""/>
    <tripinfo id="4.0" depart="210.00" departLane="W1A1_0" departPos="5.10" departSpeed="0.00" departDelay="0.00" arrival="440.00" arrivalLane="A3E1_0" arrivalPos="496.00" arrivalSpeed="9.03" duration="230.00" routeLength="1994.90" waitingTime="9.00" waitingCount="2" stopTime="0.00" timeLoss="29.83" rerouteNo="0" devices="tripinfo_4.0" vType="paperVehicle" speedFactor="1.09" vaporized=""/>
    <tripinfo id="4.1" depart="217.00" departLane="W1A1_0" departPos="5.10" departSpeed="0.00" departDelay="0.00" arrival="442.00" arrivalLane="A3E1_0" arrivalPos="496.00" arrivalSpeed="9.63" duration="225.00" routeLength="1994.90" waitingTime="3.00" waitingCount="1" stopTime="0.00" timeLoss="25.05" rerouteNo="0" devices="tripinfo_4.1" vType="paperVehicle" speedFactor="1.00" vaporized=""/>
    <tripinfo id="6.22" depart="125.00" departLane="N1A1_0" departPos="5.10" departSpeed="0.00" departDelay="1.00" arrival="457.00" arrivalLane="B3E2_0" arrivalPos="496.00" arrivalSpeed="9.93" duration="332.00" routeLength="2495.93" waitingTime="52.00" waitingCount="2" stopTime="0.00" timeLoss="81.45" rerouteNo="0" devices="tripinfo_6.22" vType="paperVehicle" speedFactor="1.18" vaporized=""/>
    <tripinfo id="6.23" depart="133.00" departLane="N1A1_0" departPos="5.10" departSpeed="0.00" departDelay="1.00" arrival="460.00" arrivalLane="B3E2_0" arrivalPos="496.00" arrivalSpeed="8.88" duration="327.00" routeLength="2495.93" waitingTime="45.00" waitingCount="2" stopTime="0.00" timeLoss="76.39" rerouteNo="0" devices="tripinfo_6.23" vType="paperVehicle" speedFactor="1.01" vaporized=""/>
    <tripinfo id="6.24" depart="137.00" departLane="N1A1_0" departPos="5.10" departSpeed="0.00" departDelay="4.00" arrival="462.00" arrivalLane="B3E2_0" arrivalPos="496.00" arrivalSpeed="8.98" duration="325.00" routeLength="2495.93" waitingTime="41.00" waitingCount="2" stopTime="0.00" timeLoss="74.40" rerouteNo="0" devices="tripinfo_6.24" vType="paperVehicle" speedFactor="1.17" vaporized=""/>
    <tripinfo id="6.25" depart="140.00" departLane="N1A1_0" departPos="5.10" departSpeed="0.00" departDelay="3.00" arrival="464.00" arrivalLane="B3E2_0" arrivalPos="496.00" arrivalSpeed="9.44" duration="324.00" routeLength="2495.93" waitingTime="40.00" waitingCount="2" stopTime="0.00" timeLoss="73.70" rerouteNo="0" devices="tripinfo_6.25" vType="paperVehicle" speedFactor="0.99" vaporized=""/>
    <tripinfo id="6.26" depart="143.00" departLane="N1A1_0" departPos="5.10" departSpeed="0.00" departDelay="3.00" arrival="466.00" arrivalLane="B3E2_0" arrivalPos="496.00" arrivalSpeed="9.02" duration="323.00" routeLength="2495.93" waitingTime="38.00" waitingCount="2" stopTime="0.00" timeLoss="72.47" rerouteNo="0" devices="tripinfo_6.26" vType="paperVehicle" speedFactor="1.02" vaporized=""/>
    <tripinfo id="6.27" depart="149.00" departLane="N1A1_0" departPos="5.10" departSpeed="0.00" departDelay="0.00" arrival="468.00" arrivalLane="B3E2_0" arrivalPos="496.00" arrivalSpeed="9.65" duration="319.00" routeLength="2495.93" waitingTime="35.00" waitingCount="2" stopTime="0.00" timeLoss="68.83" rerouteNo="0" devices="tripinfo_6.27" vType="paperVehicle" speedFactor="1.18" vaporized=""/>
    <tripinfo id="6.28" depart="156.00" departLane="N1A1_0" departPos="5.10" departSpeed="0.00" departDelay="0.00" arrival="470.00" arrivalLane="B3E2_0" arrivalPos="496.00" arrivalSpeed="9.04" duration="314.00" routeLength="2495.93" waitingTime="28.00" waitingCount="2" stopTime="0.00" timeLoss="64.07" rerouteNo="0" devices="tripinfo_6.28" vType="paperVehicle" speedFactor="1.10" vaporized=""/>
    <tripinfo id="5.1" depart="225.00" departLane="W2B1_0" departPos="5.10" departSpeed="0.00" departDelay="0.00" arrival="473.00" arrivalLane="B3E2_0" arrivalPos="496.00" arrivalSpeed="9.47" duration="248.00" routeLength="1994.90" waitingTime="20.00" waitingCount="2" stopTime="0.00" timeLoss="47.74" rerouteNo="0" devices="tripinfo_5.1" vType="paperVehicle" speedFactor="0.90" vaporized=""/>
    <tripinfo id="5.2" depart="230.00" departLane="W2B1_0" departPos="5.10" departSpeed="0.00" departDelay="0.00" arrival="475.00" arrivalLane="B3E2_0" arrivalPos="496.00" arrivalSpeed="9.58" duration="245.00" routeLength="1994.90" waitingTime="16.00" waitingCount="2" stopTime="0.00" timeLoss="44.83" rerouteNo="0" devices="tripinfo_5.2" vType="paperVehicle" speedFactor="0.85" vaporized=""/>
    <tripinfo id="2.3" depart="300.00" departLane="N2A2_0" departPos="5.10" departSpeed="0.00" departDelay="0.00" arrival="478.00" arrivalLane="B2S2_0" arrivalPos="492.80" arrivalSpeed="8.88" duration="178.00" routeLength="1494.90" waitingTime="10.00" waitingCount="1" stopTime="0.00" timeLoss="27.93" rerouteNo="0" devices="tripinfo_2.3" vType="paperVehicle" speedFactor="1.02" vaporized=""/>
    <tripinfo id="2.4" depart="316.00" departLane="N2A2_0" departPos="5.10" departSpeed="0.00" departDelay="0.00" arrival="480.00" arrivalLane="B2S2_0" arrivalPos="492.80" arrivalSpeed="9.80" duration="164.00" routeLength="1494.90" waitingTime="0.00" waitingCount="0" stopTime="0.00" timeLoss="14.01" rerouteNo="0" devices="tripinfo_2.4" vType="paperVehicle" speedFactor="1.04" vaporized=""/>
    <tripinfo id="2.5" depart="319.00" departLane="N2A2_0" departPos="5.10" departSpeed="0.00" departDelay="0.00" arrival="482.00" arrivalLane="B2S2_0" arrivalPos="492.80" arrivalSpeed="9.69" duration="163.00" routeLength="1494.90" waitingTime="0.00" waitingCount="0" stopTime="0.00" timeLoss="13.08" rerouteNo="0" devices="tripinfo_2.5" vType="paperVehicle" speedFactor="1.02" vaporized=""/>
    <tripinfo id="2.6" depart="322.00" departLane="N2A2_0" departPos="5.10" departSpeed="0.00" departDelay="1.00" arrival="484.00" arrivalLane="B2S2_0" arrivalPos="492.80" arrivalSpeed="8.91" duration="162.00" routeLength="1494.90" waitingTime="0.00" waitingCount="0" stopTime="0.00" timeLoss="12.29" rerouteNo="0" devices="tripinfo_2.6" vType="paperVehicle" speedFactor="1.02" vaporized=""/>
    <tripinfo id="4.2" depart="276.00" departLane="W1A1_0" departPos="5.10" departSpeed="0.00" departDelay="0.00" arrival="492.00" arrivalLane="A3E1_0" arrivalPos="496.00" arrivalSpeed="9.53" duration="216.00" routeLength="1994.90" waitingTime="0.00" waitingCount="0" stopTime="0.00" timeLoss="15.83" rerouteNo="0" devices="tripinfo_4.2" vType="paperVehicle" speedFactor="0.90" vaporized=""/>
    <tripinfo id="6.29" depart="170.00" departLane="N1A1_0" departPos="5.10" departSpeed="0.00" departDelay="0.00" arrival="506.00" arrivalLane="B3E2_0" arrivalPos="496.00" arrivalSpeed="9.14" duration="336.00" routeLength="2495.93" waitingTime="55.00" waitingCount="3" stopTime="0.00" timeLoss="85.72" rerouteNo="0" devices="tripinfo_6.29" vType="paperVehicle" speedFactor="0.90" vaporized=""/>
    <tripinfo id="6.30" depart="180.00" departLane="N1A1_0" departPos="5.10" departSpeed="0.00" departDelay="0.00" arrival="508.00" arrivalLane="B3E2_0" arrivalPos="496.00" arrivalSpeed="9.49" duration="328.00" routeLength="2495.93" waitingTime="46.00" waitingCount="3" stopTime="0.00" timeLoss="78.06" rerouteNo="0" devices="tripinfo_6.30" vType="paperVehicle" speedFactor="1.03" vaporized=""/>
    <tripinfo id="6.31" depart="183.00" departLane="N1A1_0" departPos="5.10" departSpeed="0.00" departDelay="1.00" arrival="511.00" arrivalLane="B3E2_0" arrivalPos="496.00" arrivalSpeed="9.51" duration="328.00" routeLength="2495.93" waitingTime="42.00" waitingCount="3" stopTime="0.00" timeLoss="77.23" rerouteNo="0" devices="tripinfo_6.31" vType="paperVehicle" speedFactor="0.96" vaporized=""/>
    <tripinfo id="6.32" depart="189.00" departLane="N1A1_0" departPos="5.10" departSpeed="0.00" departDelay="0.00" arrival="513.00" arrivalLane="B3E2_0" arrivalPos="496.00" arrivalSpeed="9.17" duration="324.00" routeLength="2495.93" waitingTime="36.00" waitingCount="3" stopTime="0.00" timeLoss="73.84" rerouteNo="0" devices="tripinfo_6.32" vType="paperVehicle" speedFactor="1.09" vaporized=""/>
    <tripinfo id="6.33" depart="196.00" departLane="N1A1_0" departPos="5.10" departSpeed="0.00" departDelay="0.00" arrival="516.00" arrivalLane="B3E2_0" arrivalPos="496.00" arrivalSpeed="9.63" duration="320.00" routeLength="2495.93" waitingTime="30.00" waitingCount="2" stopTime="0.00" timeLoss="69.27" rerouteNo="0" devices="tripinfo_6.33" vType="paperVehicle" speedFactor="1.04" vaporized=""/>
    <tripinfo id="5.3" depart="283.00" departLane="W2B1_0" departPos="5.10" departSpeed="0.00" departDelay="0.00" arrival="518.00" arrivalLane="B3E2_0" arrivalPos="496.00" arrivalSpeed="8.87" duration="235.00" routeLength="1994.90" waitingTime="10.00" waitingCount="1" stopTime="0.00" timeLoss="34.77" rerouteNo="0" devices="tripinfo_5.3" vType="paperVehicle" speedFactor="1.02" vaporized=""/>
    <tripinfo id="1.5" depart="336.00" departLane="N1A1_0" departPos="5.10" departSpeed="0.00" departDelay="0.00" arrival="518.00" arrivalLane="B1S1_0" arrivalPos="492.80" arrivalSpeed="9.11" duration="182.00" routeLength="1494.90" waitingTime="15.00" waitingCount="1" stopTime="0.00" timeLoss="32.11" rerouteNo="0" devices="tripinfo_1.5" vType="paperVehicle" speedFactor="1.06" vaporized=""/>
    <tripinfo id="2.7" depart="351.00" departLane="N2A2_0" departPos="5.10" departSpeed="0.00" departDelay="0.00" arrival="532.00" arrivalLane="B2S2_0" arrivalPos="492.80" arrivalSpeed="9.27" duration="181.00" routeLength="1494.90" waitingTime="11.00" waitingCount="1" stopTime="0.00" timeLoss="30.70" rerouteNo="0" devices="tripinfo_2.7" vType="paperVehicle" speedFactor="1.03" vaporized=""/>
    <tripinfo id="4.3" depart="326.00" departLane="W1A1_0" departPos="5.10" departSpeed="0.00" departDelay="0.00" arrival="546.00" arrivalLane="A3E1_0" arrivalPos="496.00" arrivalSpeed="8.79" duration="220.00" routeLength="1994.90" waitingTime="1.00" waitingCount="1" stopTime="0.00" timeLoss="20.37" rerouteNo="0" devices="tripinfo_4.3" vType="paperVehicle" speedFactor="0.94" vaporized=""/>
    <tripinfo id="6.34" depart="231.00" departLane="N1A1_0" departPos="5.10" departSpeed="0.00" departDelay="0.00" arrival="556.00" arrivalLane="B3E2_0" arrivalPos="496.00" arrivalSpeed="9.65" duration="325.00" routeLength="2495.93" waitingTime="43.00" waitingCount="3" stopTime="0.00" timeLoss="74.35" rerouteNo="0" devices="tripinfo_6.34" vType="paperVehicle" speedFactor="1.17" vaporized=""/>
    <tripinfo id="6.35" depart="234.00" departLane="N1A1_0" departPos="5.10" departSpeed="0.00" departDelay="2.00" arrival="558.00" arrivalLane="B3E2_0" arrivalPos="496.00" arrivalSpeed="8.97" duration="324.00" routeLength="2495.93" waitingTime="39.00" waitingCount="3" stopTime="0.00" timeLoss="73.64" rerouteNo="0" devices="tripinfo_6.35" vType="paperVehicle" speedFactor="1.02" vaporized=""/>
    <tripinfo id="6.36" depart="237.00" departLane="N1A1_0" departPos="5.10" departSpeed="0.00" departDelay="1.00" arrival="560.00" arrivalLane="B3E2_0" arrivalPos="496.00" arrivalSpeed="9.21" duration="323.00" routeLength="2495.93" waitingTime="37.00" waitingCount="3" stopTime="0.00" timeLoss="73.07" rerouteNo="0" devices="tripinfo_6.36" vType="paperVehicle" speedFactor="1.10" vaporized=""/>
    <tripinfo id="6.37" depart="241.00" departLane="N1A1_0" departPos="5.10" departSpeed="0.00" departDelay="0.00" arrival="563.00" arrivalLane="B3E2_0" arrivalPos="496.00" arrivalSpeed="9.10" duration="322.00" routeLength="2495.93" waitingTime="32.00" waitingCount="3" stopTime="0.00" timeLoss="71.24" rerouteNo="0" devices="tripinfo_6.37" vType="paperVehicle" speedFactor="1.00" vaporized=""/>
    <tripinfo id="6.38" depart="255.00" departLane="N1A1_0" departPos="5.10" departSpeed="0.00" departDelay="0.00" arrival="565.00" arrivalLane="B3E2_0" arrivalPos="496.00" arrivalSpeed="9.15" duration="310.00" routeLength="2495.93" waitingTime="27.00" waitingCount="2" stopTime="0.00" timeLoss="59.66" rerouteNo="0" devices="tripinfo_6.38" vType="paperVehicle" speedFactor="1.00" vaporized=""/>
    <tripinfo id="6.39" depart="280.00" departLane="N1A1_0" departPos="5.10" departSpeed="0.00" departDelay="0.00" arrival="567.00" arrivalLane="B3E2_0" arrivalPos="496.00" arrivalSpeed="9.25" duration="287.00" routeLength="2495.93" waitingTime="7.00" waitingCount="1" stopTime="0.00" timeLoss="36.85" rerouteNo="0" devices="tripinfo_6.39" vType="paperVehicle" speedFactor="1.14" vaporized=""/>
    <tripinfo id="6.40" depart="288.00" departLane="N1A1_0" departPos="5.10" departSpeed="0.00" departDelay="0.00" arrival="570.00" arrivalLane="B3E2_0" arrivalPos="496.00" arrivalSpeed="9.33" duration="282.00" routeLength="2495.93" waitingTime="0.00" waitingCount="0" stopTime="0.00" timeLoss="30.88" rerouteNo="0" devices="tripinfo_6.40" vType="paperVehicle" speedFactor="0.97" vaporized=""/>
    <tripinfo id="6.41" depart="291.00" departLane="N1A1_0" departPos="5.10" departSpeed="0.00" departDelay="0.00" arrival="572.00" arrivalLane="B3E2_0" arrivalPos="496.00" arrivalSpeed="9.86" duration="281.00" routeLength="2495.93" waitingTime="0.00" waitingCount="0" stopTime="0.00" timeLoss="30.55" rerouteNo="0" devices="tripinfo_6.41" vType="paperVehicle" speedFactor="1.08" vaporized=""/>
    <tripinfo id="6.42" depart="295.00" departLane="N1A1_0" departPos="5.10" departSpeed="0.00" departDelay="0.00" arrival="574.00" arrivalLane="B3E2_0" arrivalPos="496.00" arrivalSpeed="9.10" duration="279.00" routeLength="2495.93" waitingTime="0.00" waitingCount="0" stopTime="0.00" timeLoss="28.53" rerouteNo="0" devices="tripinfo_6.42" vType="paperVehicle" speedFactor="1.12" vaporized=""/>
    <tripinfo id="2.8" depart="387.00" departLane="N2A2_0" departPos="5.10" departSpeed="0.00" departDelay="0.00" arrival="586.00" arrivalLane="B2S2_0" arrivalPos="492.80" arrivalSpeed="8.81" duration="199.00" routeLength="1494.90" waitingTime="31.00" waitingCount="2" stopTime="0.00" timeLoss="49.44" rerouteNo="0" devices="tripinfo_2.8" vType="paperVehicle" speedFactor="0.97" vaporized=""/>
    <tripinfo id="4.4" depart="364.00" departLane="W1A1_0" departPos="5.10" departSpeed="0.00" departDelay="0.00" arrival="603.00" arrivalLane="A3E1_0" arrivalPos="496.00" arrivalSpeed="9.79" duration="239.00" routeLength="1994.90" waitingTime="18.00" waitingCount="1" stopTime="0.00" timeLoss="38.98" rerouteNo="0" devices="tripinfo_4.4" vType="paperVehicle" speedFactor="1.09" vaporized=""/>
    <tripinfo id="6.43" depart="300.00" departLane="N1A1_0" departPos="5.10" departSpeed="0.00" departDelay="0.00" arrival="605.00" arrivalLane="B3E2_0" arrivalPos="496.00" arrivalSpeed="9.99" duration="305.00" routeLength="2495.93" waitingTime="25.00" waitingCount="1" stopTime="0.00" timeLoss="54.96" rerouteNo="0" devices="tripinfo_6.43" vType="paperVehicle" speedFactor="0.99" vaporized=""/>
    <tripinfo id="4.5" depart="390.00" departLane="W1A1_0" departPos="5.10" departSpeed="0.00" departDelay="0.00" arrival="607.00" arrivalLane="A3E1_0" arrivalPos="496.00" arrivalSpeed="8.71" duration="217.00" routeLength="1994.90" waitingTime="0.00" waitingCount="0" stopTime="0.00" timeLoss="17.11" rerouteNo="0" devices="tripinfo_4.5" vType="paperVehicle" speedFactor="1.04" vaporized=""/>