<?xml version="1.0" encoding="UTF-8"?>

<!-- generated on 2022-01-06 17:35:18 by Eclipse SUMO sumo Version 1.10.0
<configuration xmlns:xsi="http://www.w3.org/2001/XMLSchema-instance" xsi:noNamespaceSchemaLocation="http://sumo.dlr.de/xsd/sumoConfiguration.xsd">

    <input>
        <net-file value="C:\Users\Marcus\Desktop\Hauptordner\Studium\Masterstudium\3.%20Semester\Projekt_Sim-Opt\Traffic_Simulation\2X3GridNetwork\2x3net.net.xml"/>
        <route-files value="C:\Users\Marcus\Desktop\Hauptordner\Studium\Masterstudium\3.%20Semester\Projekt_Sim-Opt\Traffic_Simulation\2X3GridNetwork\2x3Routes.xml"/>
        <additional-files value="C:\Users\Marcus\Desktop\Hauptordner\Studium\Masterstudium\3.%20Semester\Projekt_Sim-Opt\Traffic_Simulation\2X3GridNetwork\additionals.xml"/>
    </input>

    <output>
        <tripinfo-output value="tripinfo.xml"/>
        <statistic-output value="statistics.xml"/>
    </output>

    <report>
        <no-step-log value="true"/>
    </report>

    <traci_server>
        <remote-port value="58849"/>
    </traci_server>

</configuration>
-->

<tripinfos xmlns:xsi="http://www.w3.org/2001/XMLSchema-instance" xsi:noNamespaceSchemaLocation="http://sumo.dlr.de/xsd/tripinfo_file.xsd">
    <tripinfo id="1.0" depart="5.00" departLane="N1A1_0" departPos="5.10" departSpeed="0.00" departDelay="0.00" arrival="168.00" arrivalLane="B1S1_0" arrivalPos="492.80" arrivalSpeed="8.75" duration="163.00" routeLength="1494.90" waitingTime="0.00" waitingCount="0" stopTime="0.00" timeLoss="12.93" rerouteNo="0" devices="tripinfo_1.0" vType="paperVehicle" speedFactor="1.01" vaporized=""/>
    <tripinfo id="3.0" depart="8.00" departLane="N3A3_0" departPos="5.10" departSpeed="0.00" departDelay="0.00" arrival="169.00" arrivalLane="B3S3_0" arrivalPos="492.80" arrivalSpeed="9.43" duration="161.00" routeLength="1494.90" waitingTime="0.00" waitingCount="0" stopTime="0.00" timeLoss="11.15" rerouteNo="0" devices="tripinfo_3.0" vType="paperVehicle" speedFactor="1.05" vaporized=""/>
    <tripinfo id="2.0" depart="8.00" departLane="N2A2_0" departPos="5.10" departSpeed="0.00" departDelay="0.00" arrival="173.00" arrivalLane="B2S2_0" arrivalPos="492.80" arrivalSpeed="9.18" duration="165.00" routeLength="1494.90" waitingTime="0.00" waitingCount="0" stopTime="0.00" timeLoss="14.79" rerouteNo="0" devices="tripinfo_2.0" vType="paperVehicle" speedFactor="0.83" vaporized=""/>
    <tripinfo id="1.1" depart="14.00" departLane="N1A1_0" departPos="5.10" departSpeed="0.00" departDelay="4.00" arrival="189.00" arrivalLane="B1S1_0" arrivalPos="492.80" arrivalSpeed="8.82" duration="175.00" routeLength="1494.90" waitingTime="5.00" waitingCount="1" stopTime="0.00" timeLoss="24.79" rerouteNo="0" devices="tripinfo_1.1" vType="paperVehicle" speedFactor="0.89" vaporized=""/>
    <tripinfo id="5.0" depart="4.00" departLane="W2B1_0" departPos="5.10" departSpeed="0.00" departDelay="0.00" arrival="221.00" arrivalLane="B3E2_0" arrivalPos="496.00" arrivalSpeed="9.12" duration="217.00" routeLength="1994.90" waitingTime="0.00" waitingCount="0" stopTime="0.00" timeLoss="16.78" rerouteNo="0" devices="tripinfo_5.0" vType="paperVehicle" speedFactor="0.94" vaporized=""/>
    <tripinfo id="3.1" depart="68.00" departLane="N3A3_0" departPos="5.10" departSpeed="0.00" departDelay="0.00" arrival="230.00" arrivalLane="B3S3_0" arrivalPos="492.80" arrivalSpeed="8.73" duration="162.00" routeLength="1494.90" waitingTime="0.00" waitingCount="0" stopTime="0.00" timeLoss="11.75" rerouteNo="0" devices="tripinfo_3.1" vType="paperVehicle" speedFactor="0.92" vaporized=""/>
    <tripinfo id="5.1" depart="21.00" departLane="W2B1_0" departPos="5.10" departSpeed="0.00" departDelay="0.00" arrival="238.00" arrivalLane="B3E2_0" arrivalPos="496.00" arrivalSpeed="9.09" duration="217.00" routeLength="1994.90" waitingTime="0.00" waitingCount="0" stopTime="0.00" timeLoss="16.66" rerouteNo="0" devices="tripinfo_5.1" vType="paperVehicle" speedFactor="1.09" vaporized=""/>
    <tripinfo id="4.0" depart="30.00" departLane="W1A1_0" departPos="5.10" departSpeed="0.00" departDelay="0.00" arrival="245.00" arrivalLane="A3E1_0" arrivalPos="496.00" arrivalSpeed="9.94" duration="215.00" routeLength="1994.90" waitingTime="0.00" waitingCount="0" stopTime="0.00" timeLoss="14.93" rerouteNo="0" devices="tripinfo_4.0" vType="paperVehicle" speedFactor="0.99" vaporized=""/>
    <tripinfo id="1.2" depart="34.00" departLane="N1A1_0" departPos="5.10" departSpeed="0.00" departDelay="1.00" arrival="247.00" arrivalLane="B1S1_0" arrivalPos="492.80" arrivalSpeed="9.06" duration="213.00" routeLength="1494.90" waitingTime="27.00" waitingCount="3" stopTime="0.00" timeLoss="63.11" rerouteNo="0" devices="tripinfo_1.2" vType="paperVehicle" speedFactor="0.93" vaporized=""/>
    <tripinfo id="1.3" depart="43.00" departLane="N1A1_0" departPos="5.10" departSpeed="0.00" departDelay="5.00" arrival="253.00" arrivalLane="B1S1_0" arrivalPos="492.80" arrivalSpeed="9.78" duration="210.00" routeLength="1494.90" waitingTime="24.00" waitingCount="2" stopTime="0.00" timeLoss="60.11" rerouteNo="0" devices="tripinfo_1.3" vType="paperVehicle" speedFactor="1.16" vaporized=""/>
    <tripinfo id="5.2" depart="36.00" departLane="W2B1_0" departPos="5.10" departSpeed="0.00" departDelay="0.00" arrival="259.00" arrivalLane="B3E2_0" arrivalPos="496.00" arrivalSpeed="9.86" duration="223.00" routeLength="1994.90" waitingTime="3.00" waitingCount="1" stopTime="0.00" timeLoss="22.64" rerouteNo="0" devices="tripinfo_5.2" vType="paperVehicle" speedFactor="0.94" vaporized=""/>
    <tripinfo id="5.3" depart="45.00" departLane="W2B1_0" departPos="5.10" departSpeed="0.00" departDelay="0.00" arrival="261.00" arrivalLane="B3E2_0" arrivalPos="496.00" arrivalSpeed="8.74" duration="216.00" routeLength="1994.90" waitingTime="0.00" waitingCount="0" stopTime="0.00" timeLoss="16.29" rerouteNo="0" devices="tripinfo_5.3" vType="paperVehicle" speedFactor="1.02" vaporized=""/>
    <tripinfo id="6.0" depart="0.00" departLane="N1A1_0" departPos="5.10" departSpeed="0.00" departDelay="0.00" arrival="270.00" arrivalLane="B3E2_0" arrivalPos="496.00" arrivalSpeed="9.72" duration="270.00" routeLength="2495.93" waitingTime="0.00" waitingCount="0" stopTime="0.00" timeLoss="19.50" rerouteNo="0" devices="tripinfo_6.0" vType="paperVehicle" speedFactor="1.06" vaporized=""/>
    <tripinfo id="1.4" depart="79.00" departLane="N1A1_0" departPos="5.10" departSpeed="0.00" departDelay="0.00" arrival="288.00" arrivalLane="B1S1_0" arrivalPos="492.80" arrivalSpeed="9.74" duration="209.00" routeLength="1494.90" waitingTime="23.00" waitingCount="2" stopTime="0.00" timeLoss="58.59" rerouteNo="0" devices="tripinfo_1.4" vType="paperVehicle" speedFactor="1.15" vaporized=""/>
    <tripinfo id="6.1" depart="8.00" departLane="N1A1_0" departPos="5.10" departSpeed="0.00" departDelay="3.00" arrival="295.00" arrivalLane="B3E2_0" arrivalPos="496.00" arrivalSpeed="9.40" duration="287.00" routeLength="2495.93" waitingTime="9.00" waitingCount="1" stopTime="0.00" timeLoss="36.01" rerouteNo="0" devices="tripinfo_6.1" vType="paperVehicle" speedFactor="1.08" vaporized=""/>
    <tripinfo id="4.1" depart="56.00" departLane="W1A1_0" departPos="5.10" departSpeed="0.00" departDelay="0.00" arrival="295.00" arrivalLane="A3E1_0" arrivalPos="496.00" arrivalSpeed="9.27" duration="239.00" routeLength="1994.90" waitingTime="20.00" waitingCount="1" stopTime="0.00" timeLoss="38.85" rerouteNo="0" devices="tripinfo_4.1" vType="paperVehicle" speedFactor="0.89" vaporized=""/>
    <tripinfo id="6.2" depart="11.00" departLane="N1A1_0" departPos="5.10" departSpeed="0.00" departDelay="4.00" arrival="297.00" arrivalLane="B3E2_0" arrivalPos="496.00" arrivalSpeed="9.00" duration="286.00" routeLength="2495.93" waitingTime="6.00" waitingCount="1" stopTime="0.00" timeLoss="35.66" rerouteNo="0" devices="tripinfo_6.2" vType="paperVehicle" speedFactor="1.03" vaporized=""/>
    <tripinfo id="2.1" depart="126.00" departLane="N2A2_0" departPos="5.10" departSpeed="0.00" departDelay="0.00" arrival="297.00" arrivalLane="B2S2_0" arrivalPos="492.80" arrivalSpeed="9.90" duration="171.00" routeLength="1494.90" waitingTime="5.00" waitingCount="1" stopTime="0.00" timeLoss="20.58" rerouteNo="0" devices="tripinfo_2.1" vType="paperVehicle" speedFactor="1.18" vaporized=""/>
    <tripinfo id="3.2" depart="117.00" departLane="N3A3_0" departPos="5.10" departSpeed="0.00" departDelay="0.00" arrival="305.00" arrivalLane="B3S3_0" arrivalPos="492.80" arrivalSpeed="9.57" duration="188.00" routeLength="1494.90" waitingTime="22.00" waitingCount="1" stopTime="0.00" timeLoss="37.90" rerouteNo="0" devices="tripinfo_3.2" vType="paperVehicle" speedFactor="0.99" vaporized=""/>
    <tripinfo id="4.2" depart="71.00" departLane="W1A1_0" departPos="5.10" departSpeed="0.00" departDelay="0.00" arrival="306.00" arrivalLane="A3E1_0" arrivalPos="496.00" arrivalSpeed="9.07" duration="235.00" routeLength="1994.90" waitingTime="15.00" waitingCount="1" stopTime="0.00" timeLoss="35.19" rerouteNo="0" devices="tripinfo_4.2" vType="paperVehicle" speedFactor="0.93" vaporized=""/>
    <tripinfo id="6.3" depart="17.00" departLane="N1A1_0" departPos="5.10" departSpeed="0.00" departDelay="4.00" arrival="314.00" arrivalLane="B3E2_0" arrivalPos="496.00" arrivalSpeed="9.93" duration="297.00" routeLength="2495.93" waitingTime="17.00" waitingCount="2" stopTime="0.00" timeLoss="46.12" rerouteNo="0" devices="tripinfo_6.3" vType="paperVehicle" speedFactor="0.94" vaporized=""/>
    <tripinfo id="6.4" depart="20.00" departLane="N1A1_0" departPos="5.10" departSpeed="0.00" departDelay="0.00" arrival="317.00" arrivalLane="B3E2_0" arrivalPos="496.00" arrivalSpeed="9.38" duration="297.00" routeLength="2495.93" waitingTime="13.00" waitingCount="2" stopTime="0.00" timeLoss="46.20" rerouteNo="0" devices="tripinfo_6.4" vType="paperVehicle" speedFactor="0.86" vaporized=""/>
    <tripinfo id="6.5" depart="24.00" departLane="N1A1_0" departPos="5.10" departSpeed="0.00" departDelay="0.00" arrival="319.00" arrivalLane="B3E2_0" arrivalPos="496.00" arrivalSpeed="9.89" duration="295.00" routeLength="2495.93" waitingTime="10.00" waitingCount="2" stopTime="0.00" timeLoss="44.73" rerouteNo="0" devices="tripinfo_6.5" vType="paperVehicle" speedFactor="1.03" vaporized=""/>
    <tripinfo id="2.2" depart="163.00" departLane="N2A2_0" departPos="5.10" departSpeed="0.00" departDelay="0.00" arrival="325.00" arrivalLane="B2S2_0" arrivalPos="492.80" arrivalSpeed="9.52" duration="162.00" routeLength="1494.90" waitingTime="0.00" waitingCount="0" stopTime="0.00" timeLoss="12.44" rerouteNo="0" devices="tripinfo_2.2" vType="paperVehicle" speedFactor="1.09" vaporized=""/>
    <tripinfo id="3.3" depart="164.00" departLane="N3A3_0" departPos="5.10" departSpeed="0.00" departDelay="0.00" arrival="326.00" arrivalLane="B3S3_0" arrivalPos="492.80" arrivalSpeed="8.96" duration="162.00" routeLength="1494.90" waitingTime="0.00" waitingCount="0" stopTime="0.00" timeLoss="12.01" rerouteNo="0" devices="tripinfo_3.3" vType="paperVehicle" speedFactor="1.00" vaporized=""/>
    <tripinfo id="3.4" depart="175.00" departLane="N3A3_0" departPos="5.10" departSpeed="0.00" departDelay="0.00" arrival="338.00" arrivalLane="B3S3_0" arrivalPos="492.80" arrivalSpeed="8.72" duration="163.00" routeLength="1494.90" waitingTime="0.00" waitingCount="0" stopTime="0.00" timeLoss="12.91" rerouteNo="0" devices="tripinfo_3.4" vType="paperVehicle" speedFactor="0.88" vaporized=""/>
    <tripinfo id="3.5" depart="179.00" departLane="N3A3_0" departPos="5.10" departSpeed="0.00" departDelay="0.00" arrival="342.00" arrivalLane="B3S3_0" arrivalPos="492.80" arrivalSpeed="9.07" duration="163.00" routeLength="1494.90" waitingTime="0.00" waitingCount="0" stopTime="0.00" timeLoss="13.17" rerouteNo="0" devices="tripinfo_3.5" vType="paperVehicle" speedFactor="0.85" vaporized=""/>
    <tripinfo id="6.6" depart="28.00" departLane="N1A1_0" departPos="5.10" departSpeed="0.00" departDelay="0.00" arrival="348.00" arrivalLane="B3E2_0" arrivalPos="496.00" arrivalSpeed="9.81" duration="320.00" routeLength="2495.93" waitingTime="29.00" waitingCount="3" stopTime="0.00" timeLoss="69.81" rerouteNo="0" devices="tripinfo_6.6" vType="paperVehicle" speedFactor="1.05" vaporized=""/>
    <tripinfo id="6.7" depart="31.00" departLane="N1A1_0" departPos="5.10" departSpeed="0.00" departDelay="2.00" arrival="351.00" arrivalLane="B3E2_0" arrivalPos="496.00" arrivalSpeed="8.75" duration="320.00" routeLength="2495.93" waitingTime="26.00" waitingCount="3" stopTime="0.00" timeLoss="69.40" rerouteNo="0" devices="tripinfo_6.7" vType="paperVehicle" speedFactor="1.12" vaporized=""/>
    <tripinfo id="2.3" depart="189.00" departLane="N2A2_0" departPos="5.10" departSpeed="0.00" departDelay="0.00" arrival="352.00" arrivalLane="B2S2_0" arrivalPos="492.80" arrivalSpeed="9.09" duration="163.00" routeLength="1494.90" waitingTime="0.00" waitingCount="0" stopTime="0.00" timeLoss="13.23" rerouteNo="0" devices="tripinfo_2.3" vType="paperVehicle" speedFactor="1.10" vaporized=""/>
    <tripinfo id="2.4" depart="192.00" departLane="N2A2_0" departPos="5.10" departSpeed="0.00" departDelay="2.00" arrival="355.00" arrivalLane="B2S2_0" arrivalPos="492.80" arrivalSpeed="8.94" duration="163.00" routeLength="1494.90" waitingTime="0.00" waitingCount="0" stopTime="0.00" timeLoss="12.81" rerouteNo="0" devices="tripinfo_2.4" vType="paperVehicle" speedFactor="1.00" vaporized=""/>
    <tripinfo id="1.5" depart="187.00" departLane="N1A1_0" departPos="5.10" departSpeed="0.00" departDelay="0.00" arrival="356.00" arrivalLane="B1S1_0" arrivalPos="492.80" arrivalSpeed="9.11" duration="169.00" routeLength="1494.90" waitingTime="1.00" waitingCount="1" stopTime="0.00" timeLoss="18.76" rerouteNo="0" devices="tripinfo_1.5" vType="paperVehicle" speedFactor="1.02" vaporized=""/>
    <tripinfo id="6.8" depart="37.00" departLane="N1A1_0" departPos="5.10" departSpeed="0.00" departDelay="3.00" arrival="361.00" arrivalLane="B3E2_0" arrivalPos="496.00" arrivalSpeed="9.75" duration="324.00" routeLength="2495.93" waitingTime="28.00" waitingCount="4" stopTime="0.00" timeLoss="72.70" rerouteNo="0" devices="tripinfo_6.8" vType="paperVehicle" speedFactor="0.88" vaporized=""/>
    <tripinfo id="6.9" depart="40.00" departLane="N1A1_0" departPos="5.10" departSpeed="0.00" departDelay="4.00" arrival="363.00" arrivalLane="B3E2_0" arrivalPos="496.00" arrivalSpeed="9.04" duration="323.00" routeLength="2495.93" waitingTime="25.00" waitingCount="2" stopTime="0.00" timeLoss="72.58" rerouteNo="0" devices="tripinfo_6.9" vType="paperVehicle" speedFactor="0.94" vaporized=""/>
    <tripinfo id="6.10" depart="51.00" departLane="N1A1_0" departPos="5.10" departSpeed="0.00" departDelay="0.00" arrival="365.00" arrivalLane="B3E2_0" arrivalPos="496.00" arrivalSpeed="9.44" duration="314.00" routeLength="2495.93" waitingTime="22.00" waitingCount="2" stopTime="0.00" timeLoss="63.93" rerouteNo="0" devices="tripinfo_6.10" vType="paperVehicle" speedFactor="1.01" vaporized=""/>
    <tripinfo id="3.6" depart="216.00" departLane="N3A3_0" departPos="5.10" departSpeed="0.00" departDelay="0.00" arrival="379.00" arrivalLane="B3S3_0" arrivalPos="492.80" arrivalSpeed="9.93" duration="163.00" routeLength="1494.90" waitingTime="0.00" waitingCount="0" stopTime="0.00" timeLoss="12.91" rerouteNo="0" devices="tripinfo_3.6" vType="paperVehicle" speedFactor="1.08" vaporized=""/>
    <tripinfo id="6.11" depart="54.00" departLane="N1A1_0" departPos="5.10" departSpeed="0.00" departDelay="2.00" arrival="387.00" arrivalLane="B3E2_0" arrivalPos="496.00" arrivalSpeed="8.86" duration="333.00" routeLength="2495.93" waitingTime="36.00" waitingCount="3" stopTime="0.00" timeLoss="82.15" rerouteNo="0" devices="tripinfo_6.11" vType="paperVehicle" speedFactor="0.98" vaporized=""/>
    <tripinfo id="6.12" depart="57.00" departLane="N1A1_0" departPos="5.10" departSpeed="0.00" departDelay="0.00" arrival="389.00" arrivalLane="B3E2_0" arrivalPos="496.00" arrivalSpeed="9.90" duration="332.00" routeLength="2495.93" waitingTime="30.00" waitingCount="3" stopTime="0.00" timeLoss="80.91" rerouteNo="0" devices="tripinfo_6.12" vType="paperVehicle" speedFactor="0.83" vaporized=""/>
    <tripinfo id="4.3" depart="141.00" departLane="W1A1_0" departPos="5.10" departSpeed="0.00" departDelay="0.00" arrival="389.00" arrivalLane="A3E1_0" arrivalPos="496.00" arrivalSpeed="9.01" duration="248.00" routeLength="1994.90" waitingTime="29.00" waitingCount="1" stopTime="0.00" timeLoss="48.49" rerouteNo="0" devices="tripinfo_4.3" vType="paperVehicle" speedFactor="0.96" vaporized=""/>
    <tripinfo id="6.13" depart="60.00" departLane="N1A1_0" departPos="5.10" departSpeed="0.00" departDelay="1.00" arrival="391.00" arrivalLane="B3E2_0" arrivalPos="496.00" arrivalSpeed="9.54" duration="331.00" routeLength="2495.93" waitingTime="27.00" waitingCount="2" stopTime="0.00" timeLoss="80.82" rerouteNo="0" devices="tripinfo_6.13" vType="paperVehicle" speedFactor="0.87" vaporized=""/>
    <tripinfo id="6.14" depart="68.00" departLane="N1A1_0" departPos="5.10" departSpeed="0.00" departDelay="0.00" arrival="394.00" arrivalLane="B3E2_0" arrivalPos="496.00" arrivalSpeed="9.34" duration="326.00" routeLength="2495.93" waitingTime="26.00" waitingCount="2" stopTime="0.00" timeLoss="74.87" rerouteNo="0" devices="tripinfo_6.14" vType="paperVehicle" speedFactor="0.95" vaporized=""/>
    <tripinfo id="6.15" depart="71.00" departLane="N1A1_0" departPos="5.10" departSpeed="0.00" departDelay="2.00" arrival="396.00" arrivalLane="B3E2_0" arrivalPos="496.00" arrivalSpeed="9.48" duration="325.00" routeLength="2495.93" waitingTime="24.00" waitingCount="2" stopTime="0.00" timeLoss="74.53" rerouteNo="0" devices="tripinfo_6.15" vType="paperVehicle" speedFactor="1.13" vaporized=""/>
    <tripinfo id="5.4" depart="145.00" departLane="W2B1_0" departPos="5.10" departSpeed="0.00" departDelay="0.00" arrival="398.00" arrivalLane="B3E2_0" arrivalPos="496.00" arrivalSpeed="9.64" duration="253.00" routeLength="1994.90" waitingTime="23.00" waitingCount="2" stopTime="0.00" timeLoss="52.93" rerouteNo="0" devices="tripinfo_5.4" vType="paperVehicle" speedFactor="1.09" vaporized=""/>
    <tripinfo id="1.6" depart="242.00" departLane="N1A1_0" departPos="5.10" departSpeed="0.00" departDelay="0.00" arrival="418.00" arrivalLane="B1S1_0" arrivalPos="492.80" arrivalSpeed="9.44" duration="176.00" routeLength="1494.90" waitingTime="9.00" waitingCount="1" stopTime="0.00" timeLoss="26.45" rerouteNo="0" devices="tripinfo_1.6" vType="paperVehicle" speedFactor="1.04" vaporized=""/>
    <tripinfo id="3.7" depart="261.00" departLane="N3A3_0" departPos="5.10" departSpeed="0.00" departDelay="0.00" arrival="422.00" arrivalLane="B3S3_0" arrivalPos="492.80" arrivalSpeed="9.76" duration="161.00" routeLength="1494.90" waitingTime="0.00" waitingCount="0" stopTime="0.00" timeLoss="11.33" rerouteNo="0" devices="tripinfo_3.7" vType="paperVehicle" speedFactor="0.96" vaporized=""/>
    <tripinfo id="6.16" depart="75.00" departLane="N1A1_0" departPos="5.10" departSpeed="0.00" departDelay="0.00" arrival="430.00" arrivalLane="B3E2_0" arrivalPos="496.00" arrivalSpeed="9.69" duration="355.00" routeLength="2495.93" waitingTime="49.00" waitingCount="4" stopTime="0.00" timeLoss="104.84" rerouteNo="0" devices="tripinfo_6.16" vType="paperVehicle" speedFactor="1.18" vaporized=""/>
    <tripinfo id="6.17" depart="82.00" departLane="N1A1_0" departPos="5.10" departSpeed="0.00" departDelay="2.00" arrival="433.00" arrivalLane="B3E2_0" arrivalPos="496.00" arrivalSpeed="9.85" duration="351.00" routeLength="2495.93" waitingTime="40.00" waitingCount="4" stopTime="0.00" timeLoss="100.45" rerouteNo="0" devices="tripinfo_6.17" vType="paperVehicle" speedFactor="1.01" vaporized=""/>
    <tripinfo id="6.18" depart="87.00" departLane="N1A1_0" departPos="5.10" departSpeed="0.00" departDelay="0.00" arrival="435.00" arrivalLane="B3E2_0" arrivalPos="496.00" arrivalSpeed="9.91" duration="348.00" routeLength="2495.93" waitingTime="39.00" waitingCount="4" stopTime="0.00" timeLoss="97.87" rerouteNo="0" devices="tripinfo_6.18" vType="paperVehicle" speedFactor="1.17" vaporized=""/>
    <tripinfo id="6.19" depart="122.00" departLane="N1A1_0" departPos="5.10" departSpeed="0.00" departDelay="0.00" arrival="437.00" arrivalLane="B3E2_0" arrivalPos="496.00" arrivalSpeed="8.99" duration="315.00" routeLength="2495.93" waitingTime="26.00" waitingCount="3" stopTime="0.00" timeLoss="64.82" rerouteNo="0" devices="tripinfo_6.19" vType="paperVehicle" speedFactor="1.02" vaporized=""/>
    <tripinfo id="6.20" depart="125.00" departLane="N1A1_0" departPos="5.10" departSpeed="0.00" departDelay="2.00" arrival="440.00" arrivalLane="B3E2_0" arrivalPos="496.00" arrivalSpeed="9.29" duration="315.00" routeLength="2495.93" waitingTime="21.00" waitingCount="3" stopTime="0.00" timeLoss="63.82" rerouteNo="0" devices="tripinfo_6.20" vType="paperVehicle" speedFactor="0.97" vaporized=""/>
    <tripinfo id="3.8" depart="285.00" departLane="N3A3_0" departPos="5.10" departSpeed="0.00" departDelay="0.00" arrival="448.00" arrivalLane="B3S3_0" arrivalPos="492.80" arrivalSpeed="9.30" duration="163.00" routeLength="1494.90" waitingTime="0.00" waitingCount="0" stopTime="0.00" timeLoss="13.06" rerouteNo="0" devices="tripinfo_3.8" vType="paperVehicle" speedFactor="1.00" vaporized=""/>
    <tripinfo id="3.9" depart="288.00" departLane="N3A3_0" departPos="5.10" departSpeed="0.00" departDelay="1.00" arrival="450.00" arrivalLane="B3S3_0" arrivalPos="492.80" arrivalSpeed="9.04" duration="162.00" routeLength="1494.90" waitingTime="0.00" waitingCount="0" stopTime="0.00" timeLoss="12.37" rerouteNo="0" devices="tripinfo_3.9" vType="paperVehicle" speedFactor="1.02" vaporized=""/>
    <tripinfo id="6.21" depart="128.00" departLane="N1A1_0" departPos="5.10" departSpeed="0.00" departDelay="0.00" arrival="456.00" arrivalLane="B3E2_0" arrivalPos="496.00" arrivalSpeed="9.71" duration="328.00" routeLength="2495.93" waitingTime="34.00" waitingCount="4" stopTime="0.00" timeLoss="78.11" rerouteNo="0" devices="tripinfo_6.21" vType="paperVehicle" speedFactor="1.10" vaporized=""/>
    <tripinfo id="6.22" depart="136.00" departLane="N1A1_0" departPos="5.10" departSpeed="0.00" departDelay="0.00" arrival="459.00" arrivalLane="B3E2_0" arrivalPos="496.00" arrivalSpeed="9.08" duration="323.00" routeLength="2495.93" waitingTime="26.00" waitingCount="3" stopTime="0.00" timeLoss="72.56" rerouteNo="0" devices="tripinfo_6.22" vType="paperVehicle" speedFactor="0.90" vaporized=""/>
    <tripinfo id="6.23" depart="139.00" departLane="N1A1_0" departPos="5.10" departSpeed="0.00" departDelay="0.00" arrival="461.00" arrivalLane="B3E2_0" arrivalPos="496.00" arrivalSpeed="9.48" duration="322.00" routeLength="2495.93" waitingTime="25.00" waitingCount="3" stopTime="0.00" timeLoss="71.46" rerouteNo="0" devices="tripinfo_6.23" vType="paperVehicle" speedFactor="1.03" vaporized=""/>
    <tripinfo id="4.4" depart="224.00" departLane="W1A1_0" departPos="5.10" departSpeed="0.00" departDelay="0.00" arrival="462.00" arrivalLane="A3E1_0" arrivalPos="496.00" arrivalSpeed="8.75" duration="238.00" routeLength="1994.90" waitingTime="16.00" waitingCount="1" stopTime="0.00" timeLoss="37.98" rerouteNo="0" devices="tripinfo_4.4" vType="paperVehicle" speedFactor="0.94" vaporized=""/>
    <tripinfo id="6.24" depart="146.00" departLane="N1A1_0" departPos="5.10" departSpeed="0.00" departDelay="0.00" arrival="463.00" arrivalLane="B3E2_0" arrivalPos="496.00" arrivalSpeed="9.86" duration="317.00" routeLength="2495.93" waitingTime="23.00" waitingCount="3" stopTime="0.00" timeLoss="66.50" rerouteNo="0" devices="tripinfo_6.24" vType="paperVehicle" speedFactor="1.04" vaporized=""/>
    <tripinfo id="2.5" depart="290.00" departLane="N2A2_0" departPos="5.10" departSpeed="0.00" departDelay="0.00" arrival="464.00" arrivalLane="B2S2_0" arrivalPos="492.80" arrivalSpeed="9.60" duration="174.00" routeLength="1494.90" waitingTime="6.00" waitingCount="1" stopTime="0.00" timeLoss="23.58" rerouteNo="0" devices="tripinfo_2.5" vType="paperVehicle" speedFactor="1.15" vaporized=""/>
    <tripinfo id="6.25" depart="153.00" departLane="N1A1_0" departPos="5.10" departSpeed="0.00" departDelay="0.00" arrival="465.00" arrivalLane="B3E2_0" arrivalPos="496.00" arrivalSpeed="8.80" duration="312.00" routeLength="2495.93" waitingTime="18.00" waitingCount="3" stopTime="0.00" timeLoss="61.75" rerouteNo="0" devices="tripinfo_6.25" vType="paperVehicle" speedFactor="1.04" vaporized=""/>
    <tripinfo id="6.26" depart="168.00" departLane="N1A1_0" departPos="5.10" departSpeed="0.00" departDelay="0.00" arrival="468.00" arrivalLane="B3E2_0" arrivalPos="496.00" arrivalSpeed="9.91" duration="300.00" routeLength="2495.93" waitingTime="12.00" waitingCount="2" stopTime="0.00" timeLoss="49.20" rerouteNo="0" devices="tripinfo_6.26" vType="paperVehicle" speedFactor="0.90" vaporized=""/>
    <tripinfo id="5.5" depart="237.00" departLane="W2B1_0" departPos="5.10" departSpeed="0.00" departDelay="0.00" arrival="470.00" arrivalLane="B3E2_0" arrivalPos="496.00" arrivalSpeed="10.00" duration="233.00" routeLength="1994.90" waitingTime="8.00" waitingCount="1" stopTime="0.00" timeLoss="32.63" rerouteNo="0" devices="tripinfo_5.5" vType="paperVehicle" speedFactor="0.91" vaporized=""/>
    <tripinfo id="6.27" depart="181.00" departLane="N1A1_0" departPos="5.10" departSpeed="0.00" departDelay="0.00" arrival="472.00" arrivalLane="B3E2_0" arrivalPos="496.00" arrivalSpeed="8.95" duration="291.00" routeLength="2495.93" waitingTime="10.00" waitingCount="2" stopTime="0.00" timeLoss="40.10" rerouteNo="0" devices="tripinfo_6.27" vType="paperVehicle" speedFactor="0.85" vaporized=""/>
    <tripinfo id="6.28" depart="184.00" departLane="N1A1_0" departPos="5.10" departSpeed="0.00" departDelay="1.00" arrival="474.00" arrivalLane="B3E2_0" arrivalPos="496.00" arrivalSpeed="9.86" duration="290.00" routeLength="2495.93" waitingTime="7.00" waitingCount="2" stopTime="0.00" timeLoss="39.32" rerouteNo="0" devices="tripinfo_6.28" vType="paperVehicle" speedFactor="1.17" vaporized=""/>
    <tripinfo id="6.29" depart="194.00" departLane="N1A1_0" departPos="5.10" departSpeed="0.00" departDelay="0.00" arrival="476.00" arrivalLane="B3E2_0" arrivalPos="496.00" arrivalSpeed="9.48" duration="282.00" routeLength="2495.93" waitingTime="4.00" waitingCount="1" stopTime="0.00" timeLoss="31.42" rerouteNo="0" devices="tripinfo_6.29" vType="paperVehicle" speedFactor="1.00" vaporized=""/>
    <tripinfo id="1.7" depart="293.00" departLane="N1A1_0" departPos="5.10" departSpeed="0.00" departDelay="1.00" arrival="477.00" arrivalLane="B1S1_0" arrivalPos="492.80" arrivalSpeed="9.31" duration="184.00" routeLength="1494.90" waitingTime="8.00" waitingCount="2" stopTime="0.00" timeLoss="34.21" rerouteNo="0" devices="tripinfo_1.7" vType="paperVehicle" speedFactor="1.00" vaporized=""/>
    <tripinfo id="6.30" depart="197.00" departLane="N1A1_0" departPos="5.10" departSpeed="0.00" departDelay="1.00" arrival="478.00" arrivalLane="B3E2_0" arrivalPos="496.00" arrivalSpeed="9.36" duration="281.00" routeLength="2495.93" waitingTime="1.00" waitingCount="1" stopTime="0.00" timeLoss="30.57" rerouteNo="0" devices="tripinfo_6.30" vType="paperVehicle" speedFactor="0.90" vaporized=""/>
    <tripinfo id="6.31" depart="201.00" departLane="N1A1_0" departPos="5.10" departSpeed="0.00" departDelay="0.00" arrival="480.00" arrivalLane="B3E2_0" arrivalPos="496.00" arrivalSpeed="9.89" duration="279.00" routeLength="2495.93" waitingTime="0.00" waitingCount="0" stopTime="0.00" timeLoss="28.96" rerouteNo="0" devices="tripinfo_6.31" vType="paperVehicle" speedFactor="1.14" vaporized=""/>
    <tripinfo id="6.32" depart="206.00" departLane="N1A1_0" departPos="5.10" departSpeed="0.00" departDelay="0.00" arrival="482.00" arrivalLane="B3E2_0" arrivalPos="496.00" arrivalSpeed="9.51" duration="276.00" routeLength="2495.93" waitingTime="0.00" waitingCount="0" stopTime="0.00" timeLoss="26.09" rerouteNo="0" devices="tripinfo_6.32" vType="paperVehicle" speedFactor="1.02" vaporized=""/>
    <tripinfo id="6.33" depart="209.00" departLane="N1A1_0" departPos="5.10" departSpeed="0.00" departDelay="0.00" arrival="485.00" arrivalLane="B3E2_0" arrivalPos="496.00" arrivalSpeed="8.81" duration="276.00" routeLength="2495.93" waitingTime="0.00" waitingCount="0" stopTime="0.00" timeLoss="25.66" rerouteNo="0" devices="tripinfo_6.33" vType="paperVehicle" speedFactor="0.97" vaporized=""/>
    <tripinfo id="6.34" depart="216.00" departLane="N1A1_0" departPos="5.10" departSpeed="0.00" departDelay="0.00" arrival="500.00" arrivalLane="B3E2_0" arrivalPos="496.00" arrivalSpeed="8.97" duration="284.00" routeLength="2495.93" waitingTime="9.00" waitingCount="1" stopTime="0.00" timeLoss="34.15" rerouteNo="0" devices="tripinfo_6.34" vType="paperVehicle" speedFactor="1.12" vaporized=""/>
    <tripinfo id="6.35" depart="219.00" departLane="N1A1_0" departPos="5.10" departSpeed="0.00" departDelay="0.00" arrival="503.00" arrivalLane="B3E2_0" arrivalPos="496.00" arrivalSpeed="8.86" duration="284.00" routeLength="2495.93" waitingTime="8.00" waitingCount="1" stopTime="0.00" timeLoss="33.93" rerouteNo="0" devices="tripinfo_6.35" vType="paperVehicle" speedFactor="1.02" vaporized=""/>
    <tripinfo id="6.36" depart="222.00" departLane="N1A1_0" departPos="5.10" departSpeed="0.00" departDelay="0.00" arrival="505.00" arrivalLane="B3E2_0" arrivalPos="496.00" arrivalSpeed="9.23" duration="283.00" routeLength="2495.93" waitingTime="5.00" waitingCount="1" stopTime="0.00" timeLoss="33.08" rerouteNo="0" devices="tripinfo_6.36" vType="paperVehicle" speedFactor="0.99" vaporized=""/>
    <tripinfo id="4.5" depart="278.00" departLane="W1A1_0" departPos="5.10" departSpeed="0.00" departDelay="0.00" arrival="505.00" arrivalLane="A3E1_0" arrivalPos="496.00" arrivalSpeed="8.76" duration="227.00" routeLength="1994.90" waitingTime="4.00" waitingCount="2" stopTime="0.00" timeLoss="26.91" rerouteNo="0" devices="tripinfo_4.5" vType="paperVehicle" speedFactor="1.09" vaporized=""/>