<?xml version="1.0" encoding="UTF-8"?>

<!-- generated on 2021-12-22 12:23:00 by Eclipse SUMO sumo Version 1.10.0
<configuration xmlns:xsi="http://www.w3.org/2001/XMLSchema-instance" xsi:noNamespaceSchemaLocation="http://sumo.dlr.de/xsd/sumoConfiguration.xsd">

    <input>
        <net-file value="C:\Users\Marcus\Desktop\Hauptordner\Studium\Masterstudium\3.%20Semester\Projekt_Sim-Opt\Traffic_Simulation\2X3GridNetwork\2x3net.net.xml"/>
        <route-files value="C:\Users\Marcus\Desktop\Hauptordner\Studium\Masterstudium\3.%20Semester\Projekt_Sim-Opt\Traffic_Simulation\2X3GridNetwork\2x3Routes.xml"/>
        <additional-files value="C:\Users\Marcus\Desktop\Hauptordner\Studium\Masterstudium\3.%20Semester\Projekt_Sim-Opt\Traffic_Simulation\2X3GridNetwork\additionals.xml"/>
    </input>

    <output>
        <tripinfo-output value="tripinfo.xml"/>
        <statistic-output value="statistics.xml"/>
    </output>

    <report>
        <no-step-log value="true"/>
    </report>

    <traci_server>
        <remote-port value="60715"/>
    </traci_server>

</configuration>
-->

<tripinfos xmlns:xsi="http://www.w3.org/2001/XMLSchema-instance" xsi:noNamespaceSchemaLocation="http://sumo.dlr.de/xsd/tripinfo_file.xsd">
    <tripinfo id="2.0" depart="36.00" departLane="N2A2_0" departPos="5.10" departSpeed="0.00" departDelay="0.00" arrival="151.00" arrivalLane="B2S2_0" arrivalPos="492.80" arrivalSpeed="13.80" duration="115.00" routeLength="1494.90" waitingTime="1.00" waitingCount="1" stopTime="0.00" timeLoss="14.83" rerouteNo="0" devices="tripinfo_2.0" vType="DEFAULT_VEHTYPE" speedFactor="1.08" vaporized=""/>
    <tripinfo id="1.0" depart="72.00" departLane="N1A1_0" departPos="5.10" departSpeed="0.00" departDelay="0.00" arrival="191.00" arrivalLane="B1S1_0" arrivalPos="492.80" arrivalSpeed="14.38" duration="119.00" routeLength="1494.90" waitingTime="0.00" waitingCount="0" stopTime="0.00" timeLoss="20.21" rerouteNo="0" devices="tripinfo_1.0" vType="DEFAULT_VEHTYPE" speedFactor="1.09" vaporized=""/>
    <tripinfo id="6.0" depart="4.00" departLane="N1A1_0" departPos="5.10" departSpeed="0.00" departDelay="0.00" arrival="197.00" arrivalLane="B3E2_0" arrivalPos="496.00" arrivalSpeed="14.43" duration="193.00" routeLength="2495.93" waitingTime="0.00" waitingCount="0" stopTime="0.00" timeLoss="21.98" rerouteNo="0" devices="tripinfo_6.0" vType="DEFAULT_VEHTYPE" speedFactor="1.06" vaporized=""/>
    <tripinfo id="3.0" depart="66.00" departLane="N3A3_0" departPos="5.10" departSpeed="0.00" departDelay="0.00" arrival="197.00" arrivalLane="B3S3_0" arrivalPos="492.80" arrivalSpeed="12.89" duration="131.00" routeLength="1494.90" waitingTime="3.00" waitingCount="1" stopTime="0.00" timeLoss="15.63" rerouteNo="0" devices="tripinfo_3.0" vType="DEFAULT_VEHTYPE" speedFactor="0.94" vaporized=""/>
    <tripinfo id="5.0" depart="55.00" departLane="W2B1_0" departPos="5.10" departSpeed="0.00" departDelay="0.00" arrival="208.00" arrivalLane="B3E2_0" arrivalPos="496.00" arrivalSpeed="14.41" duration="153.00" routeLength="1994.90" waitingTime="0.00" waitingCount="0" stopTime="0.00" timeLoss="15.22" rerouteNo="0" devices="tripinfo_5.0" vType="DEFAULT_VEHTYPE" speedFactor="1.05" vaporized=""/>
    <tripinfo id="6.1" depart="13.00" departLane="N1A1_0" departPos="5.10" departSpeed="0.00" departDelay="0.00" arrival="233.00" arrivalLane="B3E2_0" arrivalPos="496.00" arrivalSpeed="12.52" duration="220.00" routeLength="2495.93" waitingTime="2.00" waitingCount="1" stopTime="0.00" timeLoss="27.14" rerouteNo="0" devices="tripinfo_6.1" vType="DEFAULT_VEHTYPE" speedFactor="0.94" vaporized=""/>
    <tripinfo id="6.2" depart="23.00" departLane="N1A1_0" departPos="5.10" departSpeed="0.00" departDelay="0.00" arrival="235.00" arrivalLane="B3E2_0" arrivalPos="496.00" arrivalSpeed="13.73" duration="212.00" routeLength="2495.93" waitingTime="0.00" waitingCount="0" stopTime="0.00" timeLoss="33.12" rerouteNo="0" devices="tripinfo_6.2" vType="DEFAULT_VEHTYPE" speedFactor="1.01" vaporized=""/>
    <tripinfo id="6.3" depart="43.00" departLane="N1A1_0" departPos="5.10" departSpeed="0.00" departDelay="0.00" arrival="237.00" arrivalLane="B3E2_0" arrivalPos="496.00" arrivalSpeed="13.04" duration="194.00" routeLength="2495.93" waitingTime="0.00" waitingCount="0" stopTime="0.00" timeLoss="18.26" rerouteNo="0" devices="tripinfo_6.3" vType="DEFAULT_VEHTYPE" speedFactor="1.03" vaporized=""/>
    <tripinfo id="2.1" depart="70.00" departLane="N2A2_0" departPos="5.10" departSpeed="0.00" departDelay="0.00" arrival="253.00" arrivalLane="B2S2_0" arrivalPos="492.80" arrivalSpeed="11.10" duration="183.00" routeLength="1494.90" waitingTime="38.00" waitingCount="2" stopTime="0.00" timeLoss="56.79" rerouteNo="0" devices="tripinfo_2.1" vType="DEFAULT_VEHTYPE" speedFactor="0.86" vaporized=""/>
    <tripinfo id="3.1" depart="119.00" departLane="N3A3_0" departPos="5.10" departSpeed="0.00" departDelay="0.00" arrival="253.00" arrivalLane="B3S3_0" arrivalPos="492.80" arrivalSpeed="13.47" duration="134.00" routeLength="1494.90" waitingTime="13.00" waitingCount="1" stopTime="0.00" timeLoss="27.15" rerouteNo="0" devices="tripinfo_3.1" vType="DEFAULT_VEHTYPE" speedFactor="1.01" vaporized=""/>
    <tripinfo id="2.2" depart="77.00" departLane="N2A2_0" departPos="5.10" departSpeed="0.00" departDelay="0.00" arrival="276.00" arrivalLane="B2S2_0" arrivalPos="492.80" arrivalSpeed="14.18" duration="199.00" routeLength="1494.90" waitingTime="60.00" waitingCount="3" stopTime="0.00" timeLoss="95.72" rerouteNo="0" devices="tripinfo_2.2" vType="DEFAULT_VEHTYPE" speedFactor="1.05" vaporized=""/>
    <tripinfo id="6.4" depart="51.00" departLane="N1A1_0" departPos="5.10" departSpeed="0.00" departDelay="0.00" arrival="286.00" arrivalLane="B3E2_0" arrivalPos="496.00" arrivalSpeed="10.28" duration="235.00" routeLength="2495.93" waitingTime="0.00" waitingCount="0" stopTime="0.00" timeLoss="17.55" rerouteNo="0" devices="tripinfo_6.4" vType="DEFAULT_VEHTYPE" speedFactor="0.83" vaporized=""/>
    <tripinfo id="6.5" depart="64.00" departLane="N1A1_0" departPos="5.10" departSpeed="0.00" departDelay="0.00" arrival="288.00" arrivalLane="B3E2_0" arrivalPos="496.00" arrivalSpeed="11.96" duration="224.00" routeLength="2495.93" waitingTime="0.00" waitingCount="0" stopTime="0.00" timeLoss="20.02" rerouteNo="0" devices="tripinfo_6.5" vType="DEFAULT_VEHTYPE" speedFactor="0.89" vaporized=""/>
    <tripinfo id="3.2" depart="127.00" departLane="N3A3_0" departPos="5.10" departSpeed="0.00" departDelay="0.00" arrival="294.00" arrivalLane="B3S3_0" arrivalPos="492.80" arrivalSpeed="10.36" duration="167.00" routeLength="1494.90" waitingTime="16.00" waitingCount="1" stopTime="0.00" timeLoss="36.24" rerouteNo="0" devices="tripinfo_3.2" vType="DEFAULT_VEHTYPE" speedFactor="0.83" vaporized=""/>
    <tripinfo id="5.1" depart="98.00" departLane="W2B1_0" departPos="5.10" departSpeed="0.00" departDelay="0.00" arrival="295.00" arrivalLane="B3E2_0" arrivalPos="496.00" arrivalSpeed="12.08" duration="197.00" routeLength="1994.90" waitingTime="20.00" waitingCount="2" stopTime="0.00" timeLoss="41.96" rerouteNo="0" devices="tripinfo_5.1" vType="DEFAULT_VEHTYPE" speedFactor="0.93" vaporized=""/>
    <tripinfo id="6.6" depart="75.00" departLane="N1A1_0" departPos="5.10" departSpeed="0.00" departDelay="2.00" arrival="297.00" arrivalLane="B3E2_0" arrivalPos="496.00" arrivalSpeed="14.20" duration="222.00" routeLength="2495.93" waitingTime="10.00" waitingCount="2" stopTime="0.00" timeLoss="45.87" rerouteNo="0" devices="tripinfo_6.6" vType="DEFAULT_VEHTYPE" speedFactor="1.03" vaporized=""/>
    <tripinfo id="6.7" depart="78.00" departLane="N1A1_0" departPos="5.10" departSpeed="0.00" departDelay="0.00" arrival="299.00" arrivalLane="B3E2_0" arrivalPos="496.00" arrivalSpeed="15.20" duration="221.00" routeLength="2495.93" waitingTime="11.00" waitingCount="3" stopTime="0.00" timeLoss="59.70" rerouteNo="0" devices="tripinfo_6.7" vType="DEFAULT_VEHTYPE" speedFactor="1.12" vaporized=""/>
    <tripinfo id="4.0" depart="123.00" departLane="W1A1_0" departPos="5.10" departSpeed="0.00" departDelay="0.00" arrival="299.00" arrivalLane="A3E1_0" arrivalPos="496.00" arrivalSpeed="13.41" duration="176.00" routeLength="1994.90" waitingTime="13.00" waitingCount="1" stopTime="0.00" timeLoss="28.38" rerouteNo="0" devices="tripinfo_4.0" vType="DEFAULT_VEHTYPE" speedFactor="0.98" vaporized=""/>
    <tripinfo id="6.8" depart="83.00" departLane="N1A1_0" departPos="5.10" departSpeed="0.00" departDelay="0.00" arrival="301.00" arrivalLane="B3E2_0" arrivalPos="496.00" arrivalSpeed="12.50" duration="218.00" routeLength="2495.93" waitingTime="1.00" waitingCount="1" stopTime="0.00" timeLoss="34.84" rerouteNo="0" devices="tripinfo_6.8" vType="DEFAULT_VEHTYPE" speedFactor="0.99" vaporized=""/>
    <tripinfo id="2.3" depart="146.00" departLane="N2A2_0" departPos="5.10" departSpeed="0.00" departDelay="0.00" arrival="303.00" arrivalLane="B2S2_0" arrivalPos="492.80" arrivalSpeed="16.25" duration="157.00" routeLength="1494.90" waitingTime="42.00" waitingCount="3" stopTime="0.00" timeLoss="64.92" rerouteNo="0" devices="tripinfo_2.3" vType="DEFAULT_VEHTYPE" speedFactor="1.17" vaporized=""/>
    <tripinfo id="3.3" depart="132.00" departLane="N3A3_0" departPos="5.10" departSpeed="0.00" departDelay="0.00" arrival="320.00" arrivalLane="B3S3_0" arrivalPos="492.80" arrivalSpeed="12.23" duration="188.00" routeLength="1494.90" waitingTime="42.00" waitingCount="2" stopTime="0.00" timeLoss="73.77" rerouteNo="0" devices="tripinfo_3.3" vType="DEFAULT_VEHTYPE" speedFactor="0.95" vaporized=""/>
    <tripinfo id="4.1" depart="144.00" departLane="W1A1_0" departPos="5.10" departSpeed="0.00" departDelay="0.00" arrival="326.00" arrivalLane="A3E1_0" arrivalPos="496.00" arrivalSpeed="13.34" duration="182.00" routeLength="1994.90" waitingTime="24.00" waitingCount="1" stopTime="0.00" timeLoss="38.57" rerouteNo="0" devices="tripinfo_4.1" vType="DEFAULT_VEHTYPE" speedFactor="1.01" vaporized=""/>
    <tripinfo id="6.9" depart="98.00" departLane="N1A1_0" departPos="5.10" departSpeed="0.00" departDelay="0.00" arrival="331.00" arrivalLane="B3E2_0" arrivalPos="496.00" arrivalSpeed="11.74" duration="233.00" routeLength="2495.93" waitingTime="7.00" waitingCount="1" stopTime="0.00" timeLoss="27.55" rerouteNo="0" devices="tripinfo_6.9" vType="DEFAULT_VEHTYPE" speedFactor="0.88" vaporized=""/>
    <tripinfo id="6.10" depart="101.00" departLane="N1A1_0" departPos="5.10" departSpeed="0.00" departDelay="0.00" arrival="333.00" arrivalLane="B3E2_0" arrivalPos="496.00" arrivalSpeed="12.76" duration="232.00" routeLength="2495.93" waitingTime="5.00" waitingCount="1" stopTime="0.00" timeLoss="40.12" rerouteNo="0" devices="tripinfo_6.10" vType="DEFAULT_VEHTYPE" speedFactor="0.94" vaporized=""/>
    <tripinfo id="6.11" depart="104.00" departLane="N1A1_0" departPos="5.10" departSpeed="0.00" departDelay="0.00" arrival="335.00" arrivalLane="B3E2_0" arrivalPos="496.00" arrivalSpeed="12.02" duration="231.00" routeLength="2495.93" waitingTime="5.00" waitingCount="1" stopTime="0.00" timeLoss="37.96" rerouteNo="0" devices="tripinfo_6.11" vType="DEFAULT_VEHTYPE" speedFactor="0.94" vaporized=""/>
    <tripinfo id="6.12" depart="109.00" departLane="N1A1_0" departPos="5.10" departSpeed="0.00" departDelay="0.00" arrival="336.00" arrivalLane="B3E2_0" arrivalPos="496.00" arrivalSpeed="14.12" duration="227.00" routeLength="2495.93" waitingTime="5.00" waitingCount="1" stopTime="0.00" timeLoss="71.01" rerouteNo="0" devices="tripinfo_6.12" vType="DEFAULT_VEHTYPE" speedFactor="1.16" vaporized=""/>
    <tripinfo id="1.1" depart="224.00" departLane="N1A1_0" departPos="5.10" departSpeed="0.00" departDelay="0.00" arrival="337.00" arrivalLane="B1S1_0" arrivalPos="492.80" arrivalSpeed="14.30" duration="113.00" routeLength="1494.90" waitingTime="0.00" waitingCount="0" stopTime="0.00" timeLoss="13.23" rerouteNo="0" devices="tripinfo_1.1" vType="DEFAULT_VEHTYPE" speedFactor="1.09" vaporized=""/>
    <tripinfo id="6.13" depart="113.00" departLane="N1A1_0" departPos="5.10" departSpeed="0.00" departDelay="0.00" arrival="338.00" arrivalLane="B3E2_0" arrivalPos="496.00" arrivalSpeed="13.74" duration="225.00" routeLength="2495.93" waitingTime="1.00" waitingCount="1" stopTime="0.00" timeLoss="47.30" rerouteNo="0" devices="tripinfo_6.13" vType="DEFAULT_VEHTYPE" speedFactor="1.02" vaporized=""/>
    <tripinfo id="6.14" depart="123.00" departLane="N1A1_0" departPos="5.10" departSpeed="0.00" departDelay="0.00" arrival="342.00" arrivalLane="B3E2_0" arrivalPos="496.00" arrivalSpeed="12.24" duration="219.00" routeLength="2495.93" waitingTime="0.00" waitingCount="0" stopTime="0.00" timeLoss="16.16" rerouteNo="0" devices="tripinfo_6.14" vType="DEFAULT_VEHTYPE" speedFactor="0.89" vaporized=""/>
    <tripinfo id="3.4" depart="141.00" departLane="N3A3_0" departPos="5.10" departSpeed="0.00" departDelay="0.00" arrival="343.00" arrivalLane="B3S3_0" arrivalPos="492.80" arrivalSpeed="15.64" duration="202.00" routeLength="1494.90" waitingTime="64.00" waitingCount="3" stopTime="0.00" timeLoss="110.11" rerouteNo="0" devices="tripinfo_3.4" vType="DEFAULT_VEHTYPE" speedFactor="1.18" vaporized=""/>
    <tripinfo id="4.2" depart="177.00" departLane="W1A1_0" departPos="5.10" departSpeed="0.00" departDelay="0.00" arrival="355.00" arrivalLane="A3E1_0" arrivalPos="496.00" arrivalSpeed="13.70" duration="178.00" routeLength="1994.90" waitingTime="22.00" waitingCount="1" stopTime="0.00" timeLoss="37.82" rerouteNo="0" devices="tripinfo_4.2" vType="DEFAULT_VEHTYPE" speedFactor="1.03" vaporized=""/>
    <tripinfo id="6.15" depart="129.00" departLane="N1A1_0" departPos="5.10" departSpeed="0.00" departDelay="0.00" arrival="360.00" arrivalLane="B3E2_0" arrivalPos="496.00" arrivalSpeed="11.94" duration="231.00" routeLength="2495.93" waitingTime="5.00" waitingCount="1" stopTime="0.00" timeLoss="24.36" rerouteNo="0" devices="tripinfo_6.15" vType="DEFAULT_VEHTYPE" speedFactor="0.87" vaporized=""/>
    <tripinfo id="6.16" depart="132.00" departLane="N1A1_0" departPos="5.10" departSpeed="0.00" departDelay="2.00" arrival="362.00" arrivalLane="B3E2_0" arrivalPos="496.00" arrivalSpeed="12.72" duration="230.00" routeLength="2495.93" waitingTime="4.00" waitingCount="2" stopTime="0.00" timeLoss="32.64" rerouteNo="0" devices="tripinfo_6.16" vType="DEFAULT_VEHTYPE" speedFactor="0.92" vaporized=""/>
    <tripinfo id="6.17" depart="135.00" departLane="N1A1_0" departPos="5.10" departSpeed="0.00" departDelay="1.00" arrival="364.00" arrivalLane="B3E2_0" arrivalPos="496.00" arrivalSpeed="15.51" duration="229.00" routeLength="2495.93" waitingTime="7.00" waitingCount="2" stopTime="0.00" timeLoss="68.70" rerouteNo="0" devices="tripinfo_6.17" vType="DEFAULT_VEHTYPE" speedFactor="1.13" vaporized=""/>
    <tripinfo id="6.18" depart="138.00" departLane="N1A1_0" departPos="5.10" departSpeed="0.00" departDelay="0.00" arrival="366.00" arrivalLane="B3E2_0" arrivalPos="496.00" arrivalSpeed="12.08" duration="228.00" routeLength="2495.93" waitingTime="3.00" waitingCount="1" stopTime="0.00" timeLoss="33.29" rerouteNo="0" devices="tripinfo_6.18" vType="DEFAULT_VEHTYPE" speedFactor="0.93" vaporized=""/>
    <tripinfo id="6.19" depart="142.00" departLane="N1A1_0" departPos="5.10" departSpeed="0.00" departDelay="0.00" arrival="367.00" arrivalLane="B3E2_0" arrivalPos="496.00" arrivalSpeed="13.69" duration="225.00" routeLength="2495.93" waitingTime="3.00" waitingCount="1" stopTime="0.00" timeLoss="68.85" rerouteNo="0" devices="tripinfo_6.19" vType="DEFAULT_VEHTYPE" speedFactor="1.15" vaporized=""/>
    <tripinfo id="6.20" depart="161.00" departLane="N1A1_0" departPos="5.10" departSpeed="0.00" departDelay="0.00" arrival="369.00" arrivalLane="B3E2_0" arrivalPos="496.00" arrivalSpeed="13.23" duration="208.00" routeLength="2495.93" waitingTime="0.00" waitingCount="0" stopTime="0.00" timeLoss="26.61" rerouteNo="0" devices="tripinfo_6.20" vType="DEFAULT_VEHTYPE" speedFactor="0.99" vaporized=""/>
    <tripinfo id="6.21" depart="164.00" departLane="N1A1_0" departPos="5.10" departSpeed="0.00" departDelay="0.00" arrival="371.00" arrivalLane="B3E2_0" arrivalPos="496.00" arrivalSpeed="14.04" duration="207.00" routeLength="2495.93" waitingTime="0.00" waitingCount="0" stopTime="0.00" timeLoss="29.69" rerouteNo="0" devices="tripinfo_6.21" vType="DEFAULT_VEHTYPE" speedFactor="1.02" vaporized=""/>
    <tripinfo id="6.22" depart="168.00" departLane="N1A1_0" departPos="5.10" departSpeed="0.00" departDelay="3.00" arrival="385.00" arrivalLane="B3E2_0" arrivalPos="496.00" arrivalSpeed="12.35" duration="217.00" routeLength="2495.93" waitingTime="7.00" waitingCount="2" stopTime="0.00" timeLoss="31.86" rerouteNo="0" devices="tripinfo_6.22" vType="DEFAULT_VEHTYPE" speedFactor="0.97" vaporized=""/>
    <tripinfo id="6.23" depart="171.00" departLane="N1A1_0" departPos="5.10" departSpeed="0.00" departDelay="5.00" arrival="387.00" arrivalLane="B3E2_0" arrivalPos="496.00" arrivalSpeed="16.01" duration="216.00" routeLength="2495.93" waitingTime="4.00" waitingCount="2" stopTime="0.00" timeLoss="62.17" rerouteNo="0" devices="tripinfo_6.23" vType="DEFAULT_VEHTYPE" speedFactor="1.18" vaporized=""/>
    <tripinfo id="6.24" depart="174.00" departLane="N1A1_0" departPos="5.10" departSpeed="0.00" departDelay="2.00" arrival="389.00" arrivalLane="B3E2_0" arrivalPos="496.00" arrivalSpeed="15.10" duration="215.00" routeLength="2495.93" waitingTime="4.00" waitingCount="2" stopTime="0.00" timeLoss="50.73" rerouteNo="0" devices="tripinfo_6.24" vType="DEFAULT_VEHTYPE" speedFactor="1.10" vaporized=""/>
    <tripinfo id="6.25" depart="177.00" departLane="N1A1_0" departPos="5.10" departSpeed="0.00" departDelay="2.00" arrival="398.00" arrivalLane="B3E2_0" arrivalPos="496.00" arrivalSpeed="11.73" duration="221.00" routeLength="2495.93" waitingTime="0.00" waitingCount="0" stopTime="0.00" timeLoss="20.28" rerouteNo="0" devices="tripinfo_6.25" vType="DEFAULT_VEHTYPE" speedFactor="0.90" vaporized=""/>
    <tripinfo id="1.2" depart="258.00" departLane="N1A1_0" departPos="5.10" departSpeed="0.00" departDelay="0.00" arrival="399.00" arrivalLane="B1S1_0" arrivalPos="492.80" arrivalSpeed="11.04" duration="141.00" routeLength="1494.90" waitingTime="3.00" waitingCount="1" stopTime="0.00" timeLoss="17.69" rerouteNo="0" devices="tripinfo_1.2" vType="DEFAULT_VEHTYPE" speedFactor="0.88" vaporized=""/>
    <tripinfo id="5.2" depart="246.00" departLane="W2B1_0" departPos="5.10" departSpeed="0.00" departDelay="0.00" arrival="401.00" arrivalLane="B3E2_0" arrivalPos="496.00" arrivalSpeed="13.50" duration="155.00" routeLength="1994.90" waitingTime="0.00" waitingCount="0" stopTime="0.00" timeLoss="10.93" rerouteNo="0" devices="tripinfo_5.2" vType="DEFAULT_VEHTYPE" speedFactor="1.00" vaporized=""/>
    <tripinfo id="1.3" depart="276.00" departLane="N1A1_0" departPos="5.10" departSpeed="0.00" departDelay="0.00" arrival="401.00" arrivalLane="B1S1_0" arrivalPos="492.80" arrivalSpeed="13.03" duration="125.00" routeLength="1494.90" waitingTime="0.00" waitingCount="0" stopTime="0.00" timeLoss="18.43" rerouteNo="0" devices="tripinfo_1.3" vType="DEFAULT_VEHTYPE" speedFactor="1.02" vaporized=""/>
    <tripinfo id="4.3" depart="272.00" departLane="W1A1_0" departPos="5.10" departSpeed="0.00" departDelay="0.00" arrival="414.00" arrivalLane="A3E1_0" arrivalPos="496.00" arrivalSpeed="16.24" duration="142.00" routeLength="1994.90" waitingTime="4.00" waitingCount="1" stopTime="0.00" timeLoss="18.62" rerouteNo="0" devices="tripinfo_4.3" vType="DEFAULT_VEHTYPE" speedFactor="1.17" vaporized=""/>
    <tripinfo id="6.26" depart="203.00" departLane="N1A1_0" departPos="5.10" departSpeed="0.00" departDelay="0.00" arrival="419.00" arrivalLane="B3E2_0" arrivalPos="496.00" arrivalSpeed="12.58" duration="216.00" routeLength="2495.93" waitingTime="2.00" waitingCount="1" stopTime="0.00" timeLoss="26.82" rerouteNo="0" devices="tripinfo_6.26" vType="DEFAULT_VEHTYPE" speedFactor="0.96" vaporized=""/>
    <tripinfo id="6.27" depart="207.00" departLane="N1A1_0" departPos="5.10" departSpeed="0.00" departDelay="0.00" arrival="421.00" arrivalLane="B3E2_0" arrivalPos="496.00" arrivalSpeed="14.98" duration="214.00" routeLength="2495.93" waitingTime="0.00" waitingCount="0" stopTime="0.00" timeLoss="48.12" rerouteNo="0" devices="tripinfo_6.27" vType="DEFAULT_VEHTYPE" speedFactor="1.09" vaporized=""/>
    <tripinfo id="6.28" depart="211.00" departLane="N1A1_0" departPos="5.10" departSpeed="0.00" departDelay="0.00" arrival="422.00" arrivalLane="B3E2_0" arrivalPos="496.00" arrivalSpeed="13.55" duration="211.00" routeLength="2495.93" waitingTime="0.00" waitingCount="0" stopTime="0.00" timeLoss="36.87" rerouteNo="0" devices="tripinfo_6.28" vType="DEFAULT_VEHTYPE" speedFactor="1.04" vaporized=""/>
    <tripinfo id="6.29" depart="221.00" departLane="N1A1_0" departPos="5.10" departSpeed="0.00" departDelay="0.00" arrival="424.00" arrivalLane="B3E2_0" arrivalPos="496.00" arrivalSpeed="13.30" duration="203.00" routeLength="2495.93" waitingTime="0.00" waitingCount="0" stopTime="0.00" timeLoss="29.52" rerouteNo="0" devices="tripinfo_6.29" vType="DEFAULT_VEHTYPE" speedFactor="1.04" vaporized=""/>
    <tripinfo id="3.5" depart="315.00" departLane="N3A3_0" departPos="5.10" departSpeed="0.00" departDelay="0.00" arrival="437.00" arrivalLane="B3S3_0" arrivalPos="492.80" arrivalSpeed="14.85" duration="122.00" routeLength="1494.90" waitingTime="5.00" waitingCount="1" stopTime="0.00" timeLoss="25.65" rerouteNo="0" devices="tripinfo_3.5" vType="DEFAULT_VEHTYPE" speedFactor="1.12" vaporized=""/>
    <tripinfo id="4.4" depart="286.00" departLane="W1A1_0" departPos="5.10" departSpeed="0.00" departDelay="0.00" arrival="451.00" arrivalLane="A3E1_0" arrivalPos="496.00" arrivalSpeed="12.85" duration="165.00" routeLength="1994.90" waitingTime="6.00" waitingCount="1" stopTime="0.00" timeLoss="21.62" rerouteNo="0" devices="tripinfo_4.4" vType="DEFAULT_VEHTYPE" speedFactor="1.00" vaporized=""/>
    <tripinfo id="5.3" depart="267.00" departLane="W2B1_0" departPos="5.10" departSpeed="0.00" departDelay="0.00" arrival="459.00" arrivalLane="B3E2_0" arrivalPos="496.00" arrivalSpeed="11.60" duration="192.00" routeLength="1994.90" waitingTime="6.00" waitingCount="1" stopTime="0.00" timeLoss="22.91" rerouteNo="0" devices="tripinfo_5.3" vType="DEFAULT_VEHTYPE" speedFactor="0.85" vaporized=""/>
    <tripinfo id="1.4" depart="334.00" departLane="N1A1_0" departPos="5.10" departSpeed="0.00" departDelay="5.00" arrival="467.00" arrivalLane="B1S1_0" arrivalPos="492.80" arrivalSpeed="11.30" duration="133.00" routeLength="1494.90" waitingTime="0.00" waitingCount="0" stopTime="0.00" timeLoss="13.87" rerouteNo="0" devices="tripinfo_1.4" vType="DEFAULT_VEHTYPE" speedFactor="0.91" vaporized=""/>
    <tripinfo id="6.30" depart="254.00" departLane="N1A1_0" departPos="5.10" departSpeed="0.00" departDelay="0.00" arrival="470.00" arrivalLane="B3E2_0" arrivalPos="496.00" arrivalSpeed="11.69" duration="216.00" routeLength="2495.93" waitingTime="0.00" waitingCount="0" stopTime="0.00" timeLoss="15.11" rerouteNo="0" devices="tripinfo_6.30" vType="DEFAULT_VEHTYPE" speedFactor="0.90" vaporized=""/>
    <tripinfo id="1.5" depart="354.00" departLane="N1A1_0" departPos="5.10" departSpeed="0.00" departDelay="0.00" arrival="483.00" arrivalLane="B1S1_0" arrivalPos="492.80" arrivalSpeed="13.40" duration="129.00" routeLength="1494.90" waitingTime="5.00" waitingCount="1" stopTime="0.00" timeLoss="18.24" rerouteNo="0" devices="tripinfo_1.5" vType="DEFAULT_VEHTYPE" speedFactor="0.97" vaporized=""/>
    <tripinfo id="1.6" depart="375.00" departLane="N1A1_0" departPos="5.10" departSpeed="0.00" departDelay="3.00" arrival="489.00" arrivalLane="B1S1_0" arrivalPos="492.80" arrivalSpeed="14.20" duration="114.00" routeLength="1494.90" waitingTime="0.00" waitingCount="0" stopTime="0.00" timeLoss="14.37" rerouteNo="0" devices="tripinfo_1.6" vType="DEFAULT_VEHTYPE" speedFactor="1.09" vaporized=""/>
    <tripinfo id="2.4" depart="360.00" departLane="N2A2_0" departPos="5.10" departSpeed="0.00" departDelay="0.00" arrival="492.00" arrivalLane="B2S2_0" arrivalPos="492.80" arrivalSpeed="13.38" duration="132.00" routeLength="1494.90" waitingTime="12.00" waitingCount="1" stopTime="0.00" timeLoss="29.28" rerouteNo="0" devices="tripinfo_2.4" vType="DEFAULT_VEHTYPE" speedFactor="1.06" vaporized=""/>
    <tripinfo id="6.31" depart="268.00" departLane="N1A1_0" departPos="5.10" departSpeed="0.00" departDelay="0.00" arrival="496.00" arrivalLane="B3E2_0" arrivalPos="496.00" arrivalSpeed="11.64" duration="228.00" routeLength="2495.93" waitingTime="0.00" waitingCount="0" stopTime="0.00" timeLoss="16.13" rerouteNo="0" devices="tripinfo_6.31" vType="DEFAULT_VEHTYPE" speedFactor="0.85" vaporized=""/>
    <tripinfo id="6.32" depart="281.00" departLane="N1A1_0" departPos="5.10" departSpeed="0.00" departDelay="0.00" arrival="497.00" arrivalLane="B3E2_0" arrivalPos="496.00" arrivalSpeed="13.04" duration="216.00" routeLength="2495.93" waitingTime="0.00" waitingCount="0" stopTime="0.00" timeLoss="51.51" rerouteNo="0" devices="tripinfo_6.32" vType="DEFAULT_VEHTYPE" speedFactor="1.10" vaporized=""/>
    <tripinfo id="6.33" depart="286.00" departLane="N1A1_0" departPos="5.10" departSpeed="0.00" departDelay="0.00" arrival="499.00" arrivalLane="B3E2_0" arrivalPos="496.00" arrivalSpeed="13.40" duration="213.00" routeLength="2495.93" waitingTime="0.00" waitingCount="0" stopTime="0.00" timeLoss="31.27" rerouteNo="0" devices="tripinfo_6.33" vType="DEFAULT_VEHTYPE" speedFactor="1.00" vaporized=""/>
    <tripinfo id="5.4" depart="315.00" departLane="W2B1_0" departPos="5.10" departSpeed="0.00" departDelay="0.00" arrival="501.00" arrivalLane="B3E2_0" arrivalPos="496.00" arrivalSpeed="13.70" duration="186.00" routeLength="1994.90" waitingTime="17.00" waitingCount="1" stopTime="0.00" timeLoss="44.00" rerouteNo="0" devices="tripinfo_5.4" vType="DEFAULT_VEHTYPE" speedFactor="1.02" vaporized=""/>
    <tripinfo id="3.6" depart="362.00" departLane="N3A3_0" departPos="5.10" departSpeed="0.00" departDelay="0.00" arrival="505.00" arrivalLane="B3S3_0" arrivalPos="492.80" arrivalSpeed="13.09" duration="143.00" routeLength="1494.90" waitingTime="17.00" waitingCount="1" stopTime="0.00" timeLoss="30.10" rerouteNo="0" devices="tripinfo_3.6" vType="DEFAULT_VEHTYPE" speedFactor="0.96" vaporized=""/>
    <tripinfo id="6.34" depart="299.00" departLane="N1A1_0" departPos="5.10" departSpeed="0.00" departDelay="0.00" arrival="515.00" arrivalLane="B3E2_0" arrivalPos="496.00" arrivalSpeed="12.28" duration="216.00" routeLength="2495.93" waitingTime="0.00" waitingCount="0" stopTime="0.00" timeLoss="15.45" rerouteNo="0" devices="tripinfo_6.34" vType="DEFAULT_VEHTYPE" speedFactor="0.90" vaporized=""/>
    <tripinfo id="6.35" depart="305.00" departLane="N1A1_0" departPos="5.10" departSpeed="0.00" departDelay="0.00" arrival="517.00" arrivalLane="B3E2_0" arrivalPos="496.00" arrivalSpeed="15.19" duration="212.00" routeLength="2495.93" waitingTime="0.00" waitingCount="0" stopTime="0.00" timeLoss="53.35" rerouteNo="0" devices="tripinfo_6.35" vType="DEFAULT_VEHTYPE" speedFactor="1.14" vaporized=""/>
    <tripinfo id="6.36" depart="308.00" departLane="N1A1_0" departPos="5.10" departSpeed="0.00" departDelay="0.00" arrival="519.00" arrivalLane="B3E2_0" arrivalPos="496.00" arrivalSpeed="14.19" duration="211.00" routeLength="2495.93" waitingTime="0.00" waitingCount="0" stopTime="0.00" timeLoss="34.05" rerouteNo="0" devices="tripinfo_6.36" vType="DEFAULT_VEHTYPE" speedFactor="1.02" vaporized=""/>
    <tripinfo id="4.5" depart="354.00" departLane="W1A1_0" departPos="5.10" departSpeed="0.00" departDelay="0.00" arrival="519.00" arrivalLane="A3E1_0" arrivalPos="496.00" arrivalSpeed="12.76" duration="165.00" routeLength="1994.90" waitingTime="0.00" waitingCount="0" stopTime="0.00" timeLoss="11.38" rerouteNo="0" devices="tripinfo_4.5" vType="DEFAULT_VEHTYPE" speedFactor="0.94" vaporized=""/>
    <tripinfo id="6.37" depart="311.00" departLane="N1A1_0" departPos="5.10" departSpeed="0.00" departDelay="1.00" arrival="520.00" arrivalLane="B3E2_0" arrivalPos="496.00" arrivalSpeed="13.40" duration="209.00" routeLength="2495.93" waitingTime="0.00" waitingCount="0" stopTime="0.00" timeLoss="22.64" rerouteNo="0" devices="tripinfo_6.37" vType="DEFAULT_VEHTYPE" speedFactor="0.97" vaporized=""/>
    <tripinfo id="6.38" depart="314.00" departLane="N1A1_0" departPos="5.10" departSpeed="0.00" departDelay="3.00" arrival="522.00" arrivalLane="B3E2_0" arrivalPos="496.00" arrivalSpeed="15.00" duration="208.00" routeLength="2495.93" waitingTime="0.00" waitingCount="0" stopTime="0.00" timeLoss="41.08" rerouteNo="0" devices="tripinfo_6.38" vType="DEFAULT_VEHTYPE" speedFactor="1.08" vaporized=""/>
    <tripinfo id="1.7" depart="406.00" departLane="N1A1_0" departPos="5.10" departSpeed="0.00" departDelay="0.00" arrival="522.00" arrivalLane="B1S1_0" arrivalPos="492.80" arrivalSpeed="12.69" duration="116.00" routeLength="1494.90" waitingTime="0.00" waitingCount="0" stopTime="0.00" timeLoss="7.88" rerouteNo="0" devices="tripinfo_1.7" vType="DEFAULT_VEHTYPE" speedFactor="1.00" vaporized=""/>
    <tripinfo id="3.7" depart="368.00" departLane="N3A3_0" departPos="5.10" departSpeed="0.00" departDelay="0.00" arrival="535.00" arrivalLane="B3S3_0" arrivalPos="492.80" arrivalSpeed="12.76" duration="167.00" routeLength="1494.90" waitingTime="36.00" waitingCount="2" stopTime="0.00" timeLoss="56.88" rerouteNo="0" devices="tripinfo_3.7" vType="DEFAULT_VEHTYPE" speedFactor="0.98" vaporized=""/>
    <tripinfo id="6.39" depart="325.00" departLane="N1A1_0" departPos="5.10" departSpeed="0.00" departDelay="0.00" arrival="539.00" arrivalLane="B3E2_0" arrivalPos="496.00" arrivalSpeed="13.22" duration="214.00" routeLength="2495.93" waitingTime="7.00" waitingCount="2" stopTime="0.00" timeLoss="31.33" rerouteNo="0" devices="tripinfo_6.39" vType="DEFAULT_VEHTYPE" speedFactor="0.99" vaporized=""/>