<?xml version="1.0" encoding="UTF-8"?>

<!-- generated on 2022-01-05 08:06:59 by Eclipse SUMO sumo Version 1.10.0
<configuration xmlns:xsi="http://www.w3.org/2001/XMLSchema-instance" xsi:noNamespaceSchemaLocation="http://sumo.dlr.de/xsd/sumoConfiguration.xsd">

    <input>
        <net-file value="C:\Users\Marcus\Desktop\Hauptordner\Studium\Masterstudium\3.%20Semester\Projekt_Sim-Opt\Traffic_Simulation\2X3GridNetwork\2x3net.net.xml"/>
        <route-files value="C:\Users\Marcus\Desktop\Hauptordner\Studium\Masterstudium\3.%20Semester\Projekt_Sim-Opt\Traffic_Simulation\2X3GridNetwork\2x3Routes.xml"/>
        <additional-files value="C:\Users\Marcus\Desktop\Hauptordner\Studium\Masterstudium\3.%20Semester\Projekt_Sim-Opt\Traffic_Simulation\2X3GridNetwork\additionals.xml"/>
    </input>

    <output>
        <tripinfo-output value="tripinfo.xml"/>
        <statistic-output value="statistics.xml"/>
    </output>

    <report>
        <no-step-log value="true"/>
    </report>

    <traci_server>
        <remote-port value="51666"/>
    </traci_server>

</configuration>
-->

<tripinfos xmlns:xsi="http://www.w3.org/2001/XMLSchema-instance" xsi:noNamespaceSchemaLocation="http://sumo.dlr.de/xsd/tripinfo_file.xsd">
    <tripinfo id="3.0" depart="13.00" departLane="N3A3_0" departPos="5.10" departSpeed="0.00" departDelay="0.00" arrival="174.00" arrivalLane="B3S3_0" arrivalPos="492.80" arrivalSpeed="9.43" duration="161.00" routeLength="1494.90" waitingTime="0.00" waitingCount="0" stopTime="0.00" timeLoss="11.15" rerouteNo="0" devices="tripinfo_3.0" vType="paperVehicle" speedFactor="0.89" vaporized=""/>
    <tripinfo id="2.0" depart="9.00" departLane="N2A2_0" departPos="5.10" departSpeed="0.00" departDelay="0.00" arrival="179.00" arrivalLane="B2S2_0" arrivalPos="492.80" arrivalSpeed="8.78" duration="170.00" routeLength="1494.90" waitingTime="3.00" waitingCount="1" stopTime="0.00" timeLoss="19.83" rerouteNo="0" devices="tripinfo_2.0" vType="paperVehicle" speedFactor="1.03" vaporized=""/>
    <tripinfo id="1.0" depart="9.00" departLane="N1A1_0" departPos="5.10" departSpeed="0.00" departDelay="2.00" arrival="184.00" arrivalLane="B1S1_0" arrivalPos="492.80" arrivalSpeed="9.81" duration="175.00" routeLength="1494.90" waitingTime="6.00" waitingCount="1" stopTime="0.00" timeLoss="24.83" rerouteNo="0" devices="tripinfo_1.0" vType="paperVehicle" speedFactor="1.01" vaporized=""/>
    <tripinfo id="1.1" depart="31.00" departLane="N1A1_0" departPos="5.10" departSpeed="0.00" departDelay="2.00" arrival="209.00" arrivalLane="B1S1_0" arrivalPos="492.80" arrivalSpeed="9.24" duration="178.00" routeLength="1494.90" waitingTime="6.00" waitingCount="1" stopTime="0.00" timeLoss="27.61" rerouteNo="0" devices="tripinfo_1.1" vType="paperVehicle" speedFactor="1.12" vaporized=""/>
    <tripinfo id="2.1" depart="52.00" departLane="N2A2_0" departPos="5.10" departSpeed="0.00" departDelay="0.00" arrival="221.00" arrivalLane="B2S2_0" arrivalPos="492.80" arrivalSpeed="9.36" duration="169.00" routeLength="1494.90" waitingTime="3.00" waitingCount="1" stopTime="0.00" timeLoss="18.77" rerouteNo="0" devices="tripinfo_2.1" vType="paperVehicle" speedFactor="0.95" vaporized=""/>
    <tripinfo id="4.0" depart="10.00" departLane="W1A1_0" departPos="5.10" departSpeed="0.00" departDelay="0.00" arrival="224.00" arrivalLane="A3E1_0" arrivalPos="496.00" arrivalSpeed="9.84" duration="214.00" routeLength="1994.90" waitingTime="0.00" waitingCount="0" stopTime="0.00" timeLoss="14.23" rerouteNo="0" devices="tripinfo_4.0" vType="paperVehicle" speedFactor="0.83" vaporized=""/>
    <tripinfo id="5.0" depart="11.00" departLane="W2B1_0" departPos="5.10" departSpeed="0.00" departDelay="0.00" arrival="227.00" arrivalLane="B3E2_0" arrivalPos="496.00" arrivalSpeed="8.99" duration="216.00" routeLength="1994.90" waitingTime="0.00" waitingCount="0" stopTime="0.00" timeLoss="16.02" rerouteNo="0" devices="tripinfo_5.0" vType="paperVehicle" speedFactor="1.05" vaporized=""/>
    <tripinfo id="5.1" depart="16.00" departLane="W2B1_0" departPos="5.10" departSpeed="0.00" departDelay="0.00" arrival="243.00" arrivalLane="B3E2_0" arrivalPos="496.00" arrivalSpeed="9.95" duration="227.00" routeLength="1994.90" waitingTime="6.00" waitingCount="1" stopTime="0.00" timeLoss="26.63" rerouteNo="0" devices="tripinfo_5.1" vType="paperVehicle" speedFactor="0.86" vaporized=""/>
    <tripinfo id="1.2" depart="46.00" departLane="N1A1_0" departPos="5.10" departSpeed="0.00" departDelay="8.00" arrival="244.00" arrivalLane="B1S1_0" arrivalPos="492.80" arrivalSpeed="9.98" duration="198.00" routeLength="1494.90" waitingTime="20.00" waitingCount="2" stopTime="0.00" timeLoss="47.80" rerouteNo="0" devices="tripinfo_1.2" vType="paperVehicle" speedFactor="0.94" vaporized=""/>
    <tripinfo id="5.2" depart="21.00" departLane="W2B1_0" departPos="5.10" departSpeed="0.00" departDelay="0.00" arrival="245.00" arrivalLane="B3E2_0" arrivalPos="496.00" arrivalSpeed="9.63" duration="224.00" routeLength="1994.90" waitingTime="4.00" waitingCount="1" stopTime="0.00" timeLoss="24.19" rerouteNo="0" devices="tripinfo_5.2" vType="paperVehicle" speedFactor="1.03" vaporized=""/>
    <tripinfo id="1.3" depart="52.00" departLane="N1A1_0" departPos="5.10" departSpeed="0.00" departDelay="12.00" arrival="249.00" arrivalLane="B1S1_0" arrivalPos="492.80" arrivalSpeed="9.02" duration="197.00" routeLength="1494.90" waitingTime="17.00" waitingCount="1" stopTime="0.00" timeLoss="46.97" rerouteNo="0" devices="tripinfo_1.3" vType="paperVehicle" speedFactor="1.02" vaporized=""/>
    <tripinfo id="2.2" depart="82.00" departLane="N2A2_0" departPos="5.10" departSpeed="0.00" departDelay="0.00" arrival="256.00" arrivalLane="B2S2_0" arrivalPos="492.80" arrivalSpeed="8.94" duration="174.00" routeLength="1494.90" waitingTime="5.00" waitingCount="2" stopTime="0.00" timeLoss="24.39" rerouteNo="0" devices="tripinfo_2.2" vType="paperVehicle" speedFactor="0.97" vaporized=""/>
    <tripinfo id="5.3" depart="45.00" departLane="W2B1_0" departPos="5.10" departSpeed="0.00" departDelay="0.00" arrival="265.00" arrivalLane="B3E2_0" arrivalPos="496.00" arrivalSpeed="9.63" duration="220.00" routeLength="1994.90" waitingTime="1.00" waitingCount="1" stopTime="0.00" timeLoss="20.29" rerouteNo="0" devices="tripinfo_5.3" vType="paperVehicle" speedFactor="0.89" vaporized=""/>
    <tripinfo id="5.4" depart="48.00" departLane="W2B1_0" departPos="5.10" departSpeed="0.00" departDelay="0.00" arrival="268.00" arrivalLane="B3E2_0" arrivalPos="496.00" arrivalSpeed="9.40" duration="220.00" routeLength="1994.90" waitingTime="0.00" waitingCount="0" stopTime="0.00" timeLoss="20.27" rerouteNo="0" devices="tripinfo_5.4" vType="paperVehicle" speedFactor="0.87" vaporized=""/>
    <tripinfo id="1.4" depart="64.00" departLane="N1A1_0" departPos="5.10" departSpeed="0.00" departDelay="15.00" arrival="282.00" arrivalLane="B1S1_0" arrivalPos="492.80" arrivalSpeed="9.48" duration="218.00" routeLength="1494.90" waitingTime="38.00" waitingCount="3" stopTime="0.00" timeLoss="68.08" rerouteNo="0" devices="tripinfo_1.4" vType="paperVehicle" speedFactor="0.92" vaporized=""/>
    <tripinfo id="6.0" depart="0.00" departLane="N1A1_0" departPos="5.10" departSpeed="0.00" departDelay="0.00" arrival="287.00" arrivalLane="B3E2_0" arrivalPos="496.00" arrivalSpeed="8.93" duration="287.00" routeLength="2495.93" waitingTime="12.00" waitingCount="1" stopTime="0.00" timeLoss="36.25" rerouteNo="0" devices="tripinfo_6.0" vType="paperVehicle" speedFactor="1.06" vaporized=""/>
    <tripinfo id="6.1" depart="6.00" departLane="N1A1_0" departPos="5.10" departSpeed="0.00" departDelay="0.00" arrival="290.00" arrivalLane="B3E2_0" arrivalPos="496.00" arrivalSpeed="9.41" duration="284.00" routeLength="2495.93" waitingTime="7.00" waitingCount="1" stopTime="0.00" timeLoss="32.85" rerouteNo="0" devices="tripinfo_6.1" vType="paperVehicle" speedFactor="0.94" vaporized=""/>
    <tripinfo id="5.5" depart="73.00" departLane="W2B1_0" departPos="5.10" departSpeed="0.00" departDelay="0.00" arrival="296.00" arrivalLane="B3E2_0" arrivalPos="496.00" arrivalSpeed="9.43" duration="223.00" routeLength="1994.90" waitingTime="3.00" waitingCount="1" stopTime="0.00" timeLoss="22.69" rerouteNo="0" devices="tripinfo_5.5" vType="paperVehicle" speedFactor="1.17" vaporized=""/>
    <tripinfo id="1.5" depart="73.00" departLane="N1A1_0" departPos="5.10" departSpeed="0.00" departDelay="8.00" arrival="302.00" arrivalLane="B1S1_0" arrivalPos="492.80" arrivalSpeed="9.78" duration="229.00" routeLength="1494.90" waitingTime="38.00" waitingCount="4" stopTime="0.00" timeLoss="78.72" rerouteNo="0" devices="tripinfo_1.5" vType="paperVehicle" speedFactor="1.18" vaporized=""/>
    <tripinfo id="1.6" depart="76.00" departLane="N1A1_0" departPos="5.10" departSpeed="0.00" departDelay="5.00" arrival="304.00" arrivalLane="B1S1_0" arrivalPos="492.80" arrivalSpeed="9.98" duration="228.00" routeLength="1494.90" waitingTime="38.00" waitingCount="4" stopTime="0.00" timeLoss="78.19" rerouteNo="0" devices="tripinfo_1.6" vType="paperVehicle" speedFactor="1.15" vaporized=""/>
    <tripinfo id="4.1" depart="72.00" departLane="W1A1_0" departPos="5.10" departSpeed="0.00" departDelay="0.00" arrival="306.00" arrivalLane="A3E1_0" arrivalPos="496.00" arrivalSpeed="9.70" duration="234.00" routeLength="1994.90" waitingTime="9.00" waitingCount="1" stopTime="0.00" timeLoss="33.60" rerouteNo="0" devices="tripinfo_4.1" vType="paperVehicle" speedFactor="1.01" vaporized=""/>
    <tripinfo id="2.3" depart="124.00" departLane="N2A2_0" departPos="5.10" departSpeed="0.00" departDelay="0.00" arrival="311.00" arrivalLane="B2S2_0" arrivalPos="492.80" arrivalSpeed="8.97" duration="187.00" routeLength="1494.90" waitingTime="21.00" waitingCount="1" stopTime="0.00" timeLoss="36.82" rerouteNo="0" devices="tripinfo_2.3" vType="paperVehicle" speedFactor="1.10" vaporized=""/>
    <tripinfo id="6.2" depart="12.00" departLane="N1A1_0" departPos="5.10" departSpeed="0.00" departDelay="4.00" arrival="320.00" arrivalLane="B3E2_0" arrivalPos="496.00" arrivalSpeed="9.23" duration="308.00" routeLength="2495.93" waitingTime="25.00" waitingCount="3" stopTime="0.00" timeLoss="57.50" rerouteNo="0" devices="tripinfo_6.2" vType="paperVehicle" speedFactor="1.08" vaporized=""/>
    <tripinfo id="6.3" depart="15.00" departLane="N1A1_0" departPos="5.10" departSpeed="0.00" departDelay="1.00" arrival="322.00" arrivalLane="B3E2_0" arrivalPos="496.00" arrivalSpeed="9.19" duration="307.00" routeLength="2495.93" waitingTime="17.00" waitingCount="3" stopTime="0.00" timeLoss="56.59" rerouteNo="0" devices="tripinfo_6.3" vType="paperVehicle" speedFactor="0.94" vaporized=""/>
    <tripinfo id="6.4" depart="18.00" departLane="N1A1_0" departPos="5.10" departSpeed="0.00" departDelay="0.00" arrival="325.00" arrivalLane="B3E2_0" arrivalPos="496.00" arrivalSpeed="9.19" duration="307.00" routeLength="2495.93" waitingTime="16.00" waitingCount="3" stopTime="0.00" timeLoss="56.65" rerouteNo="0" devices="tripinfo_6.4" vType="paperVehicle" speedFactor="1.09" vaporized=""/>
    <tripinfo id="6.5" depart="28.00" departLane="N1A1_0" departPos="5.10" departSpeed="0.00" departDelay="0.00" arrival="327.00" arrivalLane="B3E2_0" arrivalPos="496.00" arrivalSpeed="9.75" duration="299.00" routeLength="2495.93" waitingTime="12.00" waitingCount="2" stopTime="0.00" timeLoss="48.66" rerouteNo="0" devices="tripinfo_6.5" vType="paperVehicle" speedFactor="1.05" vaporized=""/>
    <tripinfo id="6.6" depart="34.00" departLane="N1A1_0" departPos="5.10" departSpeed="0.00" departDelay="3.00" arrival="329.00" arrivalLane="B3E2_0" arrivalPos="496.00" arrivalSpeed="9.53" duration="295.00" routeLength="2495.93" waitingTime="10.00" waitingCount="2" stopTime="0.00" timeLoss="45.05" rerouteNo="0" devices="tripinfo_6.6" vType="paperVehicle" speedFactor="0.99" vaporized=""/>
    <tripinfo id="6.7" depart="37.00" departLane="N1A1_0" departPos="5.10" departSpeed="0.00" departDelay="5.00" arrival="332.00" arrivalLane="B3E2_0" arrivalPos="496.00" arrivalSpeed="9.40" duration="295.00" routeLength="2495.93" waitingTime="7.00" waitingCount="2" stopTime="0.00" timeLoss="43.75" rerouteNo="0" devices="tripinfo_6.7" vType="paperVehicle" speedFactor="0.93" vaporized=""/>
    <tripinfo id="4.2" depart="108.00" departLane="W1A1_0" departPos="5.10" departSpeed="0.00" departDelay="0.00" arrival="332.00" arrivalLane="A3E1_0" arrivalPos="496.00" arrivalSpeed="9.46" duration="224.00" routeLength="1994.90" waitingTime="3.00" waitingCount="1" stopTime="0.00" timeLoss="23.78" rerouteNo="0" devices="tripinfo_4.2" vType="paperVehicle" speedFactor="1.09" vaporized=""/>
    <tripinfo id="5.6" depart="107.00" departLane="W2B1_0" departPos="5.10" departSpeed="0.00" departDelay="0.00" arrival="334.00" arrivalLane="B3E2_0" arrivalPos="496.00" arrivalSpeed="9.18" duration="227.00" routeLength="1994.90" waitingTime="1.00" waitingCount="1" stopTime="0.00" timeLoss="26.64" rerouteNo="0" devices="tripinfo_5.6" vType="paperVehicle" speedFactor="1.04" vaporized=""/>
    <tripinfo id="5.7" depart="125.00" departLane="W2B1_0" departPos="5.10" departSpeed="0.00" departDelay="0.00" arrival="340.00" arrivalLane="B3E2_0" arrivalPos="496.00" arrivalSpeed="8.77" duration="215.00" routeLength="1994.90" waitingTime="0.00" waitingCount="0" stopTime="0.00" timeLoss="15.45" rerouteNo="0" devices="tripinfo_5.7" vType="paperVehicle" speedFactor="1.00" vaporized=""/>
    <tripinfo id="3.1" depart="189.00" departLane="N3A3_0" departPos="5.10" departSpeed="0.00" departDelay="0.00" arrival="351.00" arrivalLane="B3S3_0" arrivalPos="492.80" arrivalSpeed="9.29" duration="162.00" routeLength="1494.90" waitingTime="0.00" waitingCount="0" stopTime="0.00" timeLoss="12.07" rerouteNo="0" devices="tripinfo_3.1" vType="paperVehicle" speedFactor="1.00" vaporized=""/>
    <tripinfo id="6.8" depart="40.00" departLane="N1A1_0" departPos="5.10" departSpeed="0.00" departDelay="5.00" arrival="358.00" arrivalLane="B3E2_0" arrivalPos="496.00" arrivalSpeed="8.76" duration="318.00" routeLength="2495.93" waitingTime="32.00" waitingCount="3" stopTime="0.00" timeLoss="67.73" rerouteNo="0" devices="tripinfo_6.8" vType="paperVehicle" speedFactor="0.88" vaporized=""/>
    <tripinfo id="1.7" depart="101.00" departLane="N1A1_0" departPos="5.10" departSpeed="0.00" departDelay="4.00" arrival="359.00" arrivalLane="B1S1_0" arrivalPos="492.80" arrivalSpeed="9.84" duration="258.00" routeLength="1494.90" waitingTime="50.00" waitingCount="5" stopTime="0.00" timeLoss="107.73" rerouteNo="0" devices="tripinfo_1.7" vType="paperVehicle" speedFactor="0.96" vaporized=""/>
    <tripinfo id="6.9" depart="43.00" departLane="N1A1_0" departPos="5.10" departSpeed="0.00" departDelay="7.00" arrival="361.00" arrivalLane="B3E2_0" arrivalPos="496.00" arrivalSpeed="9.75" duration="318.00" routeLength="2495.93" waitingTime="28.00" waitingCount="3" stopTime="0.00" timeLoss="66.82" rerouteNo="0" devices="tripinfo_6.9" vType="paperVehicle" speedFactor="0.94" vaporized=""/>
    <tripinfo id="4.3" depart="111.00" departLane="W1A1_0" departPos="5.10" departSpeed="0.00" departDelay="0.00" arrival="362.00" arrivalLane="A3E1_0" arrivalPos="496.00" arrivalSpeed="9.71" duration="251.00" routeLength="1994.90" waitingTime="24.00" waitingCount="2" stopTime="0.00" timeLoss="50.77" rerouteNo="0" devices="tripinfo_4.3" vType="paperVehicle" speedFactor="0.90" vaporized=""/>
    <tripinfo id="6.10" depart="49.00" departLane="N1A1_0" departPos="5.10" departSpeed="0.00" departDelay="11.00" arrival="363.00" arrivalLane="B3E2_0" arrivalPos="496.00" arrivalSpeed="8.84" duration="314.00" routeLength="2495.93" waitingTime="22.00" waitingCount="2" stopTime="0.00" timeLoss="63.51" rerouteNo="0" devices="tripinfo_6.10" vType="paperVehicle" speedFactor="1.16" vaporized=""/>
    <tripinfo id="4.4" depart="114.00" departLane="W1A1_0" departPos="5.10" departSpeed="0.00" departDelay="2.00" arrival="364.00" arrivalLane="A3E1_0" arrivalPos="496.00" arrivalSpeed="9.30" duration="250.00" routeLength="1994.90" waitingTime="23.00" waitingCount="2" stopTime="0.00" timeLoss="49.92" rerouteNo="0" devices="tripinfo_4.4" vType="paperVehicle" speedFactor="0.88" vaporized=""/>
    <tripinfo id="6.11" depart="55.00" departLane="N1A1_0" departPos="5.10" departSpeed="0.00" departDelay="14.00" arrival="365.00" arrivalLane="B3E2_0" arrivalPos="496.00" arrivalSpeed="9.39" duration="310.00" routeLength="2495.93" waitingTime="18.00" waitingCount="2" stopTime="0.00" timeLoss="59.56" rerouteNo="0" devices="tripinfo_6.11" vType="paperVehicle" speedFactor="1.01" vaporized=""/>
    <tripinfo id="1.8" depart="119.00" departLane="N1A1_0" departPos="5.10" departSpeed="0.00" departDelay="0.00" arrival="371.00" arrivalLane="B1S1_0" arrivalPos="492.80" arrivalSpeed="9.85" duration="252.00" routeLength="1494.90" waitingTime="35.00" waitingCount="5" stopTime="0.00" timeLoss="102.51" rerouteNo="0" devices="tripinfo_1.8" vType="paperVehicle" speedFactor="0.85" vaporized=""/>
    <tripinfo id="5.8" depart="160.00" departLane="W2B1_0" departPos="5.10" departSpeed="0.00" departDelay="0.00" arrival="377.00" arrivalLane="B3E2_0" arrivalPos="496.00" arrivalSpeed="9.07" duration="217.00" routeLength="1994.90" waitingTime="0.00" waitingCount="0" stopTime="0.00" timeLoss="16.64" rerouteNo="0" devices="tripinfo_5.8" vType="paperVehicle" speedFactor="0.94" vaporized=""/>
    <tripinfo id="5.9" depart="163.00" departLane="W2B1_0" departPos="5.10" departSpeed="0.00" departDelay="2.00" arrival="380.00" arrivalLane="B3E2_0" arrivalPos="496.00" arrivalSpeed="9.63" duration="217.00" routeLength="1994.90" waitingTime="0.00" waitingCount="0" stopTime="0.00" timeLoss="16.56" rerouteNo="0" devices="tripinfo_5.9" vType="paperVehicle" speedFactor="0.88" vaporized=""/>
    <tripinfo id="2.4" depart="192.00" departLane="N2A2_0" departPos="5.10" departSpeed="0.00" departDelay="0.00" arrival="385.00" arrivalLane="B2S2_0" arrivalPos="492.80" arrivalSpeed="9.02" duration="193.00" routeLength="1494.90" waitingTime="25.00" waitingCount="1" stopTime="0.00" timeLoss="43.28" rerouteNo="0" devices="tripinfo_2.4" vType="paperVehicle" speedFactor="1.15" vaporized=""/>
    <tripinfo id="2.5" depart="207.00" departLane="N2A2_0" departPos="5.10" departSpeed="0.00" departDelay="0.00" arrival="387.00" arrivalLane="B2S2_0" arrivalPos="492.80" arrivalSpeed="8.71" duration="180.00" routeLength="1494.90" waitingTime="12.00" waitingCount="1" stopTime="0.00" timeLoss="30.32" rerouteNo="0" devices="tripinfo_2.5" vType="paperVehicle" speedFactor="1.04" vaporized=""/>
    <tripinfo id="1.9" depart="145.00" departLane="N1A1_0" departPos="5.10" departSpeed="0.00" departDelay="0.00" arrival="389.00" arrivalLane="B1S1_0" arrivalPos="492.80" arrivalSpeed="9.27" duration="244.00" routeLength="1494.90" waitingTime="37.00" waitingCount="3" stopTime="0.00" timeLoss="94.07" rerouteNo="0" devices="tripinfo_1.9" vType="paperVehicle" speedFactor="0.97" vaporized=""/>
    <tripinfo id="3.2" depart="214.00" departLane="N3A3_0" departPos="5.10" departSpeed="0.00" departDelay="0.00" arrival="391.00" arrivalLane="B3S3_0" arrivalPos="492.80" arrivalSpeed="9.10" duration="177.00" routeLength="1494.90" waitingTime="10.00" waitingCount="1" stopTime="0.00" timeLoss="26.92" rerouteNo="0" devices="tripinfo_3.2" vType="paperVehicle" speedFactor="0.83" vaporized=""/>
    <tripinfo id="2.6" depart="228.00" departLane="N2A2_0" departPos="5.10" departSpeed="0.00" departDelay="0.00" arrival="391.00" arrivalLane="B2S2_0" arrivalPos="492.80" arrivalSpeed="9.46" duration="163.00" routeLength="1494.90" waitingTime="0.00" waitingCount="0" stopTime="0.00" timeLoss="12.69" rerouteNo="0" devices="tripinfo_2.6" vType="paperVehicle" speedFactor="1.07" vaporized=""/>
    <tripinfo id="6.12" depart="58.00" departLane="N1A1_0" departPos="5.10" departSpeed="0.00" departDelay="14.00" arrival="399.00" arrivalLane="B3E2_0" arrivalPos="496.00" arrivalSpeed="9.54" duration="341.00" routeLength="2495.93" waitingTime="46.00" waitingCount="3" stopTime="0.00" timeLoss="91.06" rerouteNo="0" devices="tripinfo_6.12" vType="paperVehicle" speedFactor="0.98" vaporized=""/>
    <tripinfo id="4.5" depart="176.00" departLane="W1A1_0" departPos="5.10" departSpeed="0.00" departDelay="0.00" arrival="401.00" arrivalLane="A3E1_0" arrivalPos="496.00" arrivalSpeed="9.29" duration="225.00" routeLength="1994.90" waitingTime="2.00" waitingCount="1" stopTime="0.00" timeLoss="24.65" rerouteNo="0" devices="tripinfo_4.5" vType="paperVehicle" speedFactor="0.97" vaporized=""/>
    <tripinfo id="6.13" depart="61.00" departLane="N1A1_0" departPos="5.10" departSpeed="0.00" departDelay="14.00" arrival="402.00" arrivalLane="B3E2_0" arrivalPos="496.00" arrivalSpeed="9.69" duration="341.00" routeLength="2495.93" waitingTime="51.00" waitingCount="4" stopTime="0.00" timeLoss="89.95" rerouteNo="0" devices="tripinfo_6.13" vType="paperVehicle" speedFactor="0.83" vaporized=""/>
    <tripinfo id="4.6" depart="184.00" departLane="W1A1_0" departPos="5.10" departSpeed="0.00" departDelay="0.00" arrival="403.00" arrivalLane="A3E1_0" arrivalPos="496.00" arrivalSpeed="9.95" duration="219.00" routeLength="1994.90" waitingTime="0.00" waitingCount="0" stopTime="0.00" timeLoss="19.42" rerouteNo="0" devices="tripinfo_4.6" vType="paperVehicle" speedFactor="0.98" vaporized=""/>
    <tripinfo id="6.14" depart="67.00" departLane="N1A1_0" departPos="5.10" departSpeed="0.00" departDelay="13.00" arrival="404.00" arrivalLane="B3E2_0" arrivalPos="496.00" arrivalSpeed="9.14" duration="337.00" routeLength="2495.93" waitingTime="40.00" waitingCount="4" stopTime="0.00" timeLoss="86.47" rerouteNo="0" devices="tripinfo_6.14" vType="paperVehicle" speedFactor="1.13" vaporized=""/>
    <tripinfo id="5.10" depart="185.00" departLane="W2B1_0" departPos="5.10" departSpeed="0.00" departDelay="0.00" arrival="406.00" arrivalLane="B3E2_0" arrivalPos="496.00" arrivalSpeed="9.39" duration="221.00" routeLength="1994.90" waitingTime="0.00" waitingCount="0" stopTime="0.00" timeLoss="21.18" rerouteNo="0" devices="tripinfo_5.10" vType="paperVehicle" speedFactor="0.98" vaporized=""/>
    <tripinfo id="6.15" depart="70.00" departLane="N1A1_0" departPos="5.10" departSpeed="0.00" departDelay="6.00" arrival="408.00" arrivalLane="B3E2_0" arrivalPos="496.00" arrivalSpeed="9.17" duration="338.00" routeLength="2495.93" waitingTime="41.00" waitingCount="4" stopTime="0.00" timeLoss="87.78" rerouteNo="0" devices="tripinfo_6.15" vType="paperVehicle" speedFactor="0.93" vaporized=""/>
    <tripinfo id="2.7" depart="241.00" departLane="N2A2_0" departPos="5.10" departSpeed="0.00" departDelay="0.00" arrival="417.00" arrivalLane="B2S2_0" arrivalPos="492.80" arrivalSpeed="9.50" duration="176.00" routeLength="1494.90" waitingTime="10.00" waitingCount="1" stopTime="0.00" timeLoss="25.65" rerouteNo="0" devices="tripinfo_2.7" vType="paperVehicle" speedFactor="0.97" vaporized=""/>
    <tripinfo id="5.11" depart="198.00" departLane="W2B1_0" departPos="5.10" departSpeed="0.00" departDelay="0.00" arrival="418.00" arrivalLane="B3E2_0" arrivalPos="496.00" arrivalSpeed="9.23" duration="220.00" routeLength="1994.90" waitingTime="0.00" waitingCount="0" stopTime="0.00" timeLoss="19.89" rerouteNo="0" devices="tripinfo_5.11" vType="paperVehicle" speedFactor="0.98" vaporized=""/>
    <tripinfo id="2.8" depart="244.00" departLane="N2A2_0" departPos="5.10" departSpeed="0.00" departDelay="2.00" arrival="420.00" arrivalLane="B2S2_0" arrivalPos="492.80" arrivalSpeed="9.60" duration="176.00" routeLength="1494.90" waitingTime="7.00" waitingCount="1" stopTime="0.00" timeLoss="25.72" rerouteNo="0" devices="tripinfo_2.8" vType="paperVehicle" speedFactor="0.95" vaporized=""/>
    <tripinfo id="5.12" depart="210.00" departLane="W2B1_0" departPos="5.10" departSpeed="0.00" departDelay="0.00" arrival="426.00" arrivalLane="B3E2_0" arrivalPos="496.00" arrivalSpeed="9.44" duration="216.00" routeLength="1994.90" waitingTime="0.00" waitingCount="0" stopTime="0.00" timeLoss="15.91" rerouteNo="0" devices="tripinfo_5.12" vType="paperVehicle" speedFactor="1.02" vaporized=""/>
    <tripinfo id="3.3" depart="253.00" departLane="N3A3_0" departPos="5.10" departSpeed="0.00" departDelay="0.00" arrival="431.00" arrivalLane="B3S3_0" arrivalPos="492.80" arrivalSpeed="9.79" duration="178.00" routeLength="1494.90" waitingTime="9.00" waitingCount="2" stopTime="0.00" timeLoss="28.42" rerouteNo="0" devices="tripinfo_3.3" vType="paperVehicle" speedFactor="0.93" vaporized=""/>
    <tripinfo id="3.4" depart="270.00" departLane="N3A3_0" departPos="5.10" departSpeed="0.00" departDelay="0.00" arrival="434.00" arrivalLane="B3S3_0" arrivalPos="492.80" arrivalSpeed="9.06" duration="164.00" routeLength="1494.90" waitingTime="0.00" waitingCount="0" stopTime="0.00" timeLoss="14.33" rerouteNo="0" devices="tripinfo_3.4" vType="paperVehicle" speedFactor="0.99" vaporized=""/>
    <tripinfo id="3.5" depart="273.00" departLane="N3A3_0" departPos="5.10" departSpeed="0.00" departDelay="2.00" arrival="436.00" arrivalLane="B3S3_0" arrivalPos="492.80" arrivalSpeed="9.60" duration="163.00" routeLength="1494.90" waitingTime="0.00" waitingCount="0" stopTime="0.00" timeLoss="13.34" rerouteNo="0" devices="tripinfo_3.5" vType="paperVehicle" speedFactor="1.07" vaporized=""/>
    <tripinfo id="3.6" depart="285.00" departLane="N3A3_0" departPos="5.10" departSpeed="0.00" departDelay="0.00" arrival="447.00" arrivalLane="B3S3_0" arrivalPos="492.80" arrivalSpeed="9.86" duration="162.00" routeLength="1494.90" waitingTime="0.00" waitingCount="0" stopTime="0.00" timeLoss="12.03" rerouteNo="0" devices="tripinfo_3.6" vType="paperVehicle" speedFactor="1.06" vaporized=""/>
    <tripinfo id="1.10" depart="189.00" departLane="N1A1_0" departPos="5.10" departSpeed="0.00" departDelay="4.00" arrival="448.00" arrivalLane="B1S1_0" arrivalPos="492.80" arrivalSpeed="9.41" duration="259.00" routeLength="1494.90" waitingTime="45.00" waitingCount="4" stopTime="0.00" timeLoss="108.67" rerouteNo="0" devices="tripinfo_1.10" vType="paperVehicle" speedFactor="1.03" vaporized=""/>
    <tripinfo id="1.11" depart="195.00" departLane="N1A1_0" departPos="5.10" departSpeed="0.00" departDelay="8.00" arrival="452.00" arrivalLane="B1S1_0" arrivalPos="492.80" arrivalSpeed="9.46" duration="257.00" routeLength="1494.90" waitingTime="44.00" waitingCount="5" stopTime="0.00" timeLoss="107.21" rerouteNo="0" devices="tripinfo_1.11" vType="paperVehicle" speedFactor="1.09" vaporized=""/>
    <tripinfo id="5.13" depart="221.00" departLane="W2B1_0" departPos="5.10" departSpeed="0.00" departDelay="0.00" arrival="452.00" arrivalLane="B3E2_0" arrivalPos="496.00" arrivalSpeed="9.72" duration="231.00" routeLength="1994.90" waitingTime="10.00" waitingCount="1" stopTime="0.00" timeLoss="31.24" rerouteNo="0" devices="tripinfo_5.13" vType="paperVehicle" speedFactor="0.92" vaporized=""/>
    <tripinfo id="5.14" depart="230.00" departLane="W2B1_0" departPos="5.10" departSpeed="0.00" departDelay="0.00" arrival="454.00" arrivalLane="B3E2_0" arrivalPos="496.00" arrivalSpeed="9.85" duration="224.00" routeLength="1994.90" waitingTime="3.00" waitingCount="1" stopTime="0.00" timeLoss="24.22" rerouteNo="0" devices="tripinfo_5.14" vType="paperVehicle" speedFactor="0.96" vaporized=""/>
    <tripinfo id="4.7" depart="212.00" departLane="W1A1_0" departPos="5.10" departSpeed="0.00" departDelay="0.00" arrival="455.00" arrivalLane="A3E1_0" arrivalPos="496.00" arrivalSpeed="9.45" duration="243.00" routeLength="1994.90" waitingTime="18.00" waitingCount="2" stopTime="0.00" timeLoss="43.50" rerouteNo="0" devices="tripinfo_4.7" vType="paperVehicle" speedFactor="0.89" vaporized=""/>
    <tripinfo id="6.16" depart="79.00" departLane="N1A1_0" departPos="5.10" departSpeed="0.00" departDelay="6.00" arrival="457.00" arrivalLane="B3E2_0" arrivalPos="496.00" arrivalSpeed="8.89" duration="378.00" routeLength="2495.93" waitingTime="72.00" waitingCount="5" stopTime="0.00" timeLoss="127.54" rerouteNo="0" devices="tripinfo_6.16" vType="paperVehicle" speedFactor="0.99" vaporized=""/>
    <tripinfo id="6.17" depart="82.00" departLane="N1A1_0" departPos="5.10" departSpeed="0.00" departDelay="4.00" arrival="459.00" arrivalLane="B3E2_0" arrivalPos="496.00" arrivalSpeed="8.92" duration="377.00" routeLength="2495.93" waitingTime="69.00" waitingCount="5" stopTime="0.00" timeLoss="126.35" rerouteNo="0" devices="tripinfo_6.17" vType="paperVehicle" speedFactor="1.02" vaporized=""/>
    <tripinfo id="6.18" depart="87.00" departLane="N1A1_0" departPos="5.10" departSpeed="0.00" departDelay="0.00" arrival="461.00" arrivalLane="B3E2_0" arrivalPos="496.00" arrivalSpeed="9.55" duration="374.00" routeLength="2495.93" waitingTime="63.00" waitingCount="4" stopTime="0.00" timeLoss="123.95" rerouteNo="0" devices="tripinfo_6.18" vType="paperVehicle" speedFactor="1.18" vaporized=""/>
    <tripinfo id="6.19" depart="90.00" departLane="N1A1_0" departPos="5.10" departSpeed="0.00" departDelay="2.00" arrival="463.00" arrivalLane="B3E2_0" arrivalPos="496.00" arrivalSpeed="9.77" duration="373.00" routeLength="2495.93" waitingTime="58.00" waitingCount="4" stopTime="0.00" timeLoss="122.48" rerouteNo="0" devices="tripinfo_6.19" vType="paperVehicle" speedFactor="1.10" vaporized=""/>
    <tripinfo id="6.20" depart="95.00" departLane="N1A1_0" departPos="5.10" departSpeed="0.00" departDelay="0.00" arrival="465.00" arrivalLane="B3E2_0" arrivalPos="496.00" arrivalSpeed="9.20" duration="370.00" routeLength="2495.93" waitingTime="57.00" waitingCount="5" stopTime="0.00" timeLoss="119.58" rerouteNo="0" devices="tripinfo_6.20" vType="paperVehicle" speedFactor="0.90" vaporized=""/>
    <tripinfo id="6.21" depart="98.00" departLane="N1A1_0" departPos="5.10" departSpeed="0.00" departDelay="2.00" arrival="468.00" arrivalLane="B3E2_0" arrivalPos="496.00" arrivalSpeed="8.78" duration="370.00" routeLength="2495.93" waitingTime="53.00" waitingCount="5" stopTime="0.00" timeLoss="119.04" rerouteNo="0" devices="tripinfo_6.21" vType="paperVehicle" speedFactor="1.03" vaporized=""/>