<?xml version="1.0" encoding="UTF-8"?>

<!-- generated on 2021-12-28 11:02:02 by Eclipse SUMO sumo Version 1.10.0
<configuration xmlns:xsi="http://www.w3.org/2001/XMLSchema-instance" xsi:noNamespaceSchemaLocation="http://sumo.dlr.de/xsd/sumoConfiguration.xsd">

    <input>
        <net-file value="C:\Users\Marcus\Desktop\Hauptordner\Studium\Masterstudium\3.%20Semester\Projekt_Sim-Opt\Traffic_Simulation\2X3GridNetwork\2x3net.net.xml"/>
        <route-files value="C:\Users\Marcus\Desktop\Hauptordner\Studium\Masterstudium\3.%20Semester\Projekt_Sim-Opt\Traffic_Simulation\2X3GridNetwork\2x3Routes.xml"/>
        <additional-files value="C:\Users\Marcus\Desktop\Hauptordner\Studium\Masterstudium\3.%20Semester\Projekt_Sim-Opt\Traffic_Simulation\2X3GridNetwork\additionals.xml"/>
    </input>

    <output>
        <tripinfo-output value="tripinfo.xml"/>
        <statistic-output value="statistics.xml"/>
    </output>

    <report>
        <no-step-log value="true"/>
    </report>

    <traci_server>
        <remote-port value="61976"/>
    </traci_server>

</configuration>
-->

<tripinfos xmlns:xsi="http://www.w3.org/2001/XMLSchema-instance" xsi:noNamespaceSchemaLocation="http://sumo.dlr.de/xsd/tripinfo_file.xsd">
    <tripinfo id="1.0" depart="6.00" departLane="N1A1_0" departPos="5.10" departSpeed="0.00" departDelay="0.00" arrival="131.00" arrivalLane="B1S1_0" arrivalPos="492.80" arrivalSpeed="12.59" duration="125.00" routeLength="1494.90" waitingTime="0.00" waitingCount="0" stopTime="0.00" timeLoss="9.72" rerouteNo="0" devices="tripinfo_1.0" vType="DEFAULT_VEHTYPE" speedFactor="0.94" vaporized=""/>
    <tripinfo id="1.1" depart="10.00" departLane="N1A1_0" departPos="5.10" departSpeed="0.00" departDelay="0.00" arrival="133.00" arrivalLane="B1S1_0" arrivalPos="492.80" arrivalSpeed="13.84" duration="123.00" routeLength="1494.90" waitingTime="0.00" waitingCount="0" stopTime="0.00" timeLoss="15.57" rerouteNo="0" devices="tripinfo_1.1" vType="DEFAULT_VEHTYPE" speedFactor="1.01" vaporized=""/>
    <tripinfo id="3.0" depart="11.00" departLane="N3A3_0" departPos="5.10" departSpeed="0.00" departDelay="0.00" arrival="142.00" arrivalLane="B3S3_0" arrivalPos="492.80" arrivalSpeed="14.21" duration="131.00" routeLength="1494.90" waitingTime="18.00" waitingCount="1" stopTime="0.00" timeLoss="31.52" rerouteNo="0" devices="tripinfo_3.0" vType="DEFAULT_VEHTYPE" speedFactor="1.08" vaporized=""/>
    <tripinfo id="6.0" depart="1.00" departLane="N1A1_0" departPos="5.10" departSpeed="0.00" departDelay="0.00" arrival="185.00" arrivalLane="B3E2_0" arrivalPos="496.00" arrivalSpeed="14.03" duration="184.00" routeLength="2495.93" waitingTime="0.00" waitingCount="0" stopTime="0.00" timeLoss="13.15" rerouteNo="0" devices="tripinfo_6.0" vType="DEFAULT_VEHTYPE" speedFactor="1.06" vaporized=""/>
    <tripinfo id="1.2" depart="60.00" departLane="N1A1_0" departPos="5.10" departSpeed="0.00" departDelay="0.00" arrival="188.00" arrivalLane="B1S1_0" arrivalPos="492.80" arrivalSpeed="13.61" duration="128.00" routeLength="1494.90" waitingTime="0.00" waitingCount="0" stopTime="0.00" timeLoss="22.37" rerouteNo="0" devices="tripinfo_1.2" vType="DEFAULT_VEHTYPE" speedFactor="1.03" vaporized=""/>
    <tripinfo id="3.1" depart="58.00" departLane="N3A3_0" departPos="5.10" departSpeed="0.00" departDelay="0.00" arrival="192.00" arrivalLane="B3S3_0" arrivalPos="492.80" arrivalSpeed="15.10" duration="134.00" routeLength="1494.90" waitingTime="17.00" waitingCount="2" stopTime="0.00" timeLoss="34.57" rerouteNo="0" devices="tripinfo_3.1" vType="DEFAULT_VEHTYPE" speedFactor="1.09" vaporized=""/>
    <tripinfo id="1.3" depart="84.00" departLane="N1A1_0" departPos="5.10" departSpeed="0.00" departDelay="2.00" arrival="202.00" arrivalLane="B1S1_0" arrivalPos="492.80" arrivalSpeed="12.80" duration="118.00" routeLength="1494.90" waitingTime="0.00" waitingCount="0" stopTime="0.00" timeLoss="9.29" rerouteNo="0" devices="tripinfo_1.3" vType="DEFAULT_VEHTYPE" speedFactor="0.99" vaporized=""/>
    <tripinfo id="5.0" depart="22.00" departLane="W2B1_0" departPos="5.10" departSpeed="0.00" departDelay="0.00" arrival="220.00" arrivalLane="B3E2_0" arrivalPos="496.00" arrivalSpeed="11.31" duration="198.00" routeLength="1994.90" waitingTime="7.00" waitingCount="1" stopTime="0.00" timeLoss="25.00" rerouteNo="0" devices="tripinfo_5.0" vType="DEFAULT_VEHTYPE" speedFactor="0.83" vaporized=""/>
    <tripinfo id="6.1" depart="15.00" departLane="N1A1_0" departPos="5.10" departSpeed="0.00" departDelay="0.00" arrival="222.00" arrivalLane="B3E2_0" arrivalPos="496.00" arrivalSpeed="13.70" duration="207.00" routeLength="2495.93" waitingTime="0.00" waitingCount="0" stopTime="0.00" timeLoss="31.01" rerouteNo="0" devices="tripinfo_6.1" vType="DEFAULT_VEHTYPE" speedFactor="1.03" vaporized=""/>
    <tripinfo id="6.2" depart="32.00" departLane="N1A1_0" departPos="5.10" departSpeed="0.00" departDelay="0.00" arrival="225.00" arrivalLane="B3E2_0" arrivalPos="496.00" arrivalSpeed="13.85" duration="193.00" routeLength="2495.93" waitingTime="1.00" waitingCount="1" stopTime="0.00" timeLoss="19.70" rerouteNo="0" devices="tripinfo_6.2" vType="DEFAULT_VEHTYPE" speedFactor="1.05" vaporized=""/>
    <tripinfo id="3.2" depart="83.00" departLane="N3A3_0" departPos="5.10" departSpeed="0.00" departDelay="0.00" arrival="226.00" arrivalLane="B3S3_0" arrivalPos="492.80" arrivalSpeed="11.79" duration="143.00" routeLength="1494.90" waitingTime="6.00" waitingCount="1" stopTime="0.00" timeLoss="19.55" rerouteNo="0" devices="tripinfo_3.2" vType="DEFAULT_VEHTYPE" speedFactor="0.88" vaporized=""/>
    <tripinfo id="2.0" depart="103.00" departLane="N2A2_0" departPos="5.10" departSpeed="0.00" departDelay="0.00" arrival="235.00" arrivalLane="B2S2_0" arrivalPos="492.80" arrivalSpeed="13.21" duration="132.00" routeLength="1494.90" waitingTime="11.00" waitingCount="1" stopTime="0.00" timeLoss="25.03" rerouteNo="0" devices="tripinfo_2.0" vType="DEFAULT_VEHTYPE" speedFactor="1.01" vaporized=""/>
    <tripinfo id="3.3" depart="86.00" departLane="N3A3_0" departPos="5.10" departSpeed="0.00" departDelay="2.00" arrival="248.00" arrivalLane="B3S3_0" arrivalPos="492.80" arrivalSpeed="12.05" duration="162.00" routeLength="1494.90" waitingTime="24.00" waitingCount="2" stopTime="0.00" timeLoss="46.91" rerouteNo="0" devices="tripinfo_3.3" vType="DEFAULT_VEHTYPE" speedFactor="0.94" vaporized=""/>
    <tripinfo id="6.3" depart="35.00" departLane="N1A1_0" departPos="5.10" departSpeed="0.00" departDelay="0.00" arrival="263.00" arrivalLane="B3E2_0" arrivalPos="496.00" arrivalSpeed="11.69" duration="228.00" routeLength="2495.93" waitingTime="4.00" waitingCount="1" stopTime="0.00" timeLoss="24.26" rerouteNo="0" devices="tripinfo_6.3" vType="DEFAULT_VEHTYPE" speedFactor="0.89" vaporized=""/>
    <tripinfo id="6.4" depart="38.00" departLane="N1A1_0" departPos="5.10" departSpeed="0.00" departDelay="2.00" arrival="265.00" arrivalLane="B3E2_0" arrivalPos="496.00" arrivalSpeed="12.45" duration="227.00" routeLength="2495.93" waitingTime="2.00" waitingCount="1" stopTime="0.00" timeLoss="33.88" rerouteNo="0" devices="tripinfo_6.4" vType="DEFAULT_VEHTYPE" speedFactor="0.94" vaporized=""/>
    <tripinfo id="1.4" depart="156.00" departLane="N1A1_0" departPos="5.10" departSpeed="0.00" departDelay="0.00" arrival="277.00" arrivalLane="B1S1_0" arrivalPos="492.80" arrivalSpeed="13.18" duration="121.00" routeLength="1494.90" waitingTime="2.00" waitingCount="1" stopTime="0.00" timeLoss="14.89" rerouteNo="0" devices="tripinfo_1.4" vType="DEFAULT_VEHTYPE" speedFactor="1.02" vaporized=""/>
    <tripinfo id="1.5" depart="173.00" departLane="N1A1_0" departPos="5.10" departSpeed="0.00" departDelay="0.00" arrival="279.00" arrivalLane="B1S1_0" arrivalPos="492.80" arrivalSpeed="16.17" duration="106.00" routeLength="1494.90" waitingTime="0.00" waitingCount="0" stopTime="0.00" timeLoss="13.81" rerouteNo="0" devices="tripinfo_1.5" vType="DEFAULT_VEHTYPE" speedFactor="1.18" vaporized=""/>
    <tripinfo id="6.5" depart="55.00" departLane="N1A1_0" departPos="5.10" departSpeed="0.00" departDelay="0.00" arrival="292.00" arrivalLane="B3E2_0" arrivalPos="496.00" arrivalSpeed="11.34" duration="237.00" routeLength="2495.93" waitingTime="4.00" waitingCount="1" stopTime="0.00" timeLoss="26.54" rerouteNo="0" devices="tripinfo_6.5" vType="DEFAULT_VEHTYPE" speedFactor="0.86" vaporized=""/>
    <tripinfo id="6.6" depart="69.00" departLane="N1A1_0" departPos="5.10" departSpeed="0.00" departDelay="0.00" arrival="294.00" arrivalLane="B3E2_0" arrivalPos="496.00" arrivalSpeed="13.94" duration="225.00" routeLength="2495.93" waitingTime="3.00" waitingCount="1" stopTime="0.00" timeLoss="52.21" rerouteNo="0" devices="tripinfo_6.6" vType="DEFAULT_VEHTYPE" speedFactor="1.05" vaporized=""/>
    <tripinfo id="6.7" depart="81.00" departLane="N1A1_0" departPos="5.10" departSpeed="0.00" departDelay="0.00" arrival="295.00" arrivalLane="B3E2_0" arrivalPos="496.00" arrivalSpeed="14.92" duration="214.00" routeLength="2495.93" waitingTime="7.00" waitingCount="2" stopTime="0.00" timeLoss="53.50" rerouteNo="0" devices="tripinfo_6.7" vType="DEFAULT_VEHTYPE" speedFactor="1.12" vaporized=""/>
    <tripinfo id="3.4" depart="155.00" departLane="N3A3_0" departPos="5.10" departSpeed="0.00" departDelay="0.00" arrival="296.00" arrivalLane="B3S3_0" arrivalPos="492.80" arrivalSpeed="13.79" duration="141.00" routeLength="1494.90" waitingTime="14.00" waitingCount="2" stopTime="0.00" timeLoss="31.96" rerouteNo="0" devices="tripinfo_3.4" vType="DEFAULT_VEHTYPE" speedFactor="0.99" vaporized=""/>
    <tripinfo id="6.8" depart="87.00" departLane="N1A1_0" departPos="5.10" departSpeed="0.00" departDelay="5.00" arrival="303.00" arrivalLane="B3E2_0" arrivalPos="496.00" arrivalSpeed="12.82" duration="216.00" routeLength="2495.93" waitingTime="2.00" waitingCount="1" stopTime="0.00" timeLoss="21.52" rerouteNo="0" devices="tripinfo_6.8" vType="DEFAULT_VEHTYPE" speedFactor="0.93" vaporized=""/>
    <tripinfo id="6.9" depart="91.00" departLane="N1A1_0" departPos="5.10" departSpeed="0.00" departDelay="0.00" arrival="305.00" arrivalLane="B3E2_0" arrivalPos="496.00" arrivalSpeed="12.98" duration="214.00" routeLength="2495.93" waitingTime="1.00" waitingCount="1" stopTime="0.00" timeLoss="20.86" rerouteNo="0" devices="tripinfo_6.9" vType="DEFAULT_VEHTYPE" speedFactor="0.94" vaporized=""/>
    <tripinfo id="5.1" depart="129.00" departLane="W2B1_0" departPos="5.10" departSpeed="0.00" departDelay="0.00" arrival="307.00" arrivalLane="B3E2_0" arrivalPos="496.00" arrivalSpeed="15.02" duration="178.00" routeLength="1994.90" waitingTime="13.00" waitingCount="2" stopTime="0.00" timeLoss="50.49" rerouteNo="0" devices="tripinfo_5.1" vType="DEFAULT_VEHTYPE" speedFactor="1.13" vaporized=""/>
    <tripinfo id="2.1" depart="194.00" departLane="N2A2_0" departPos="5.10" departSpeed="0.00" departDelay="0.00" arrival="307.00" arrivalLane="B2S2_0" arrivalPos="492.80" arrivalSpeed="13.51" duration="113.00" routeLength="1494.90" waitingTime="0.00" waitingCount="0" stopTime="0.00" timeLoss="9.73" rerouteNo="0" devices="tripinfo_2.1" vType="DEFAULT_VEHTYPE" speedFactor="1.04" vaporized=""/>
    <tripinfo id="6.10" depart="96.00" departLane="N1A1_0" departPos="5.10" departSpeed="0.00" departDelay="0.00" arrival="308.00" arrivalLane="B3E2_0" arrivalPos="496.00" arrivalSpeed="14.86" duration="212.00" routeLength="2495.93" waitingTime="8.00" waitingCount="2" stopTime="0.00" timeLoss="56.39" rerouteNo="0" devices="tripinfo_6.10" vType="DEFAULT_VEHTYPE" speedFactor="1.16" vaporized=""/>
    <tripinfo id="6.11" depart="101.00" departLane="N1A1_0" departPos="5.10" departSpeed="0.00" departDelay="0.00" arrival="310.00" arrivalLane="B3E2_0" arrivalPos="496.00" arrivalSpeed="13.01" duration="209.00" routeLength="2495.93" waitingTime="4.00" waitingCount="1" stopTime="0.00" timeLoss="31.35" rerouteNo="0" devices="tripinfo_6.11" vType="DEFAULT_VEHTYPE" speedFactor="1.02" vaporized=""/>
    <tripinfo id="6.12" depart="107.00" departLane="N1A1_0" departPos="5.10" departSpeed="0.00" departDelay="0.00" arrival="312.00" arrivalLane="B3E2_0" arrivalPos="496.00" arrivalSpeed="13.16" duration="205.00" routeLength="2495.93" waitingTime="0.00" waitingCount="0" stopTime="0.00" timeLoss="19.59" rerouteNo="0" devices="tripinfo_6.12" vType="DEFAULT_VEHTYPE" speedFactor="0.98" vaporized=""/>
    <tripinfo id="3.5" depart="173.00" departLane="N3A3_0" departPos="5.10" departSpeed="0.00" departDelay="0.00" arrival="317.00" arrivalLane="B3S3_0" arrivalPos="492.80" arrivalSpeed="15.30" duration="144.00" routeLength="1494.90" waitingTime="21.00" waitingCount="2" stopTime="0.00" timeLoss="45.90" rerouteNo="0" devices="tripinfo_3.5" vType="DEFAULT_VEHTYPE" speedFactor="1.10" vaporized=""/>
    <tripinfo id="1.6" depart="185.00" departLane="N1A1_0" departPos="5.10" departSpeed="0.00" departDelay="1.00" arrival="325.00" arrivalLane="B1S1_0" arrivalPos="492.80" arrivalSpeed="13.93" duration="140.00" routeLength="1494.90" waitingTime="5.00" waitingCount="1" stopTime="0.00" timeLoss="35.36" rerouteNo="0" devices="tripinfo_1.6" vType="DEFAULT_VEHTYPE" speedFactor="1.04" vaporized=""/>
    <tripinfo id="6.13" depart="110.00" departLane="N1A1_0" departPos="5.10" departSpeed="0.00" departDelay="1.00" arrival="328.00" arrivalLane="B3E2_0" arrivalPos="496.00" arrivalSpeed="12.35" duration="218.00" routeLength="2495.93" waitingTime="0.00" waitingCount="0" stopTime="0.00" timeLoss="15.54" rerouteNo="0" devices="tripinfo_6.13" vType="DEFAULT_VEHTYPE" speedFactor="0.89" vaporized=""/>
    <tripinfo id="3.6" depart="183.00" departLane="N3A3_0" departPos="5.10" departSpeed="0.00" departDelay="0.00" arrival="342.00" arrivalLane="B3S3_0" arrivalPos="492.80" arrivalSpeed="14.03" duration="159.00" routeLength="1494.90" waitingTime="39.00" waitingCount="3" stopTime="0.00" timeLoss="60.05" rerouteNo="0" devices="tripinfo_3.6" vType="DEFAULT_VEHTYPE" speedFactor="1.09" vaporized=""/>
    <tripinfo id="4.0" depart="135.00" departLane="W1A1_0" departPos="5.10" departSpeed="0.00" departDelay="0.00" arrival="347.00" arrivalLane="A3E1_0" arrivalPos="496.00" arrivalSpeed="12.91" duration="212.00" routeLength="1994.90" waitingTime="32.00" waitingCount="3" stopTime="0.00" timeLoss="56.94" rerouteNo="0" devices="tripinfo_4.0" vType="DEFAULT_VEHTYPE" speedFactor="0.93" vaporized=""/>
    <tripinfo id="4.1" depart="138.00" departLane="W1A1_0" departPos="5.10" departSpeed="0.00" departDelay="1.00" arrival="348.00" arrivalLane="A3E1_0" arrivalPos="496.00" arrivalSpeed="14.37" duration="210.00" routeLength="1994.90" waitingTime="45.00" waitingCount="3" stopTime="0.00" timeLoss="87.94" rerouteNo="0" devices="tripinfo_4.1" vType="DEFAULT_VEHTYPE" speedFactor="1.18" vaporized=""/>
    <tripinfo id="6.14" depart="114.00" departLane="N1A1_0" departPos="5.10" departSpeed="0.00" departDelay="0.00" arrival="359.00" arrivalLane="B3E2_0" arrivalPos="496.00" arrivalSpeed="10.43" duration="245.00" routeLength="2495.93" waitingTime="4.00" waitingCount="1" stopTime="0.00" timeLoss="25.83" rerouteNo="0" devices="tripinfo_6.14" vType="DEFAULT_VEHTYPE" speedFactor="0.83" vaporized=""/>
    <tripinfo id="6.15" depart="117.00" departLane="N1A1_0" departPos="5.10" departSpeed="0.00" departDelay="2.00" arrival="360.00" arrivalLane="B3E2_0" arrivalPos="496.00" arrivalSpeed="11.90" duration="243.00" routeLength="2495.93" waitingTime="3.00" waitingCount="1" stopTime="0.00" timeLoss="36.12" rerouteNo="0" devices="tripinfo_6.15" vType="DEFAULT_VEHTYPE" speedFactor="0.87" vaporized=""/>
    <tripinfo id="6.16" depart="120.00" departLane="N1A1_0" departPos="5.10" departSpeed="0.00" departDelay="4.00" arrival="362.00" arrivalLane="B3E2_0" arrivalPos="496.00" arrivalSpeed="12.48" duration="242.00" routeLength="2495.93" waitingTime="2.00" waitingCount="1" stopTime="0.00" timeLoss="45.37" rerouteNo="0" devices="tripinfo_6.16" vType="DEFAULT_VEHTYPE" speedFactor="0.92" vaporized=""/>
    <tripinfo id="6.17" depart="128.00" departLane="N1A1_0" departPos="5.10" departSpeed="0.00" departDelay="0.00" arrival="364.00" arrivalLane="B3E2_0" arrivalPos="496.00" arrivalSpeed="12.85" duration="236.00" routeLength="2495.93" waitingTime="4.00" waitingCount="2" stopTime="0.00" timeLoss="45.65" rerouteNo="0" devices="tripinfo_6.17" vType="DEFAULT_VEHTYPE" speedFactor="0.95" vaporized=""/>
    <tripinfo id="6.18" depart="139.00" departLane="N1A1_0" departPos="5.10" departSpeed="0.00" departDelay="0.00" arrival="366.00" arrivalLane="B3E2_0" arrivalPos="496.00" arrivalSpeed="15.40" duration="227.00" routeLength="2495.93" waitingTime="0.00" waitingCount="0" stopTime="0.00" timeLoss="69.50" rerouteNo="0" devices="tripinfo_6.18" vType="DEFAULT_VEHTYPE" speedFactor="1.15" vaporized=""/>
    <tripinfo id="6.19" depart="151.00" departLane="N1A1_0" departPos="5.10" departSpeed="0.00" departDelay="0.00" arrival="367.00" arrivalLane="B3E2_0" arrivalPos="496.00" arrivalSpeed="16.12" duration="216.00" routeLength="2495.93" waitingTime="0.00" waitingCount="0" stopTime="0.00" timeLoss="61.37" rerouteNo="0" devices="tripinfo_6.19" vType="DEFAULT_VEHTYPE" speedFactor="1.17" vaporized=""/>
    <tripinfo id="1.7" depart="225.00" departLane="N1A1_0" departPos="5.10" departSpeed="0.00" departDelay="0.00" arrival="370.00" arrivalLane="B1S1_0" arrivalPos="492.80" arrivalSpeed="11.35" duration="145.00" routeLength="1494.90" waitingTime="3.00" waitingCount="1" stopTime="0.00" timeLoss="18.96" rerouteNo="0" devices="tripinfo_1.7" vType="DEFAULT_VEHTYPE" speedFactor="0.85" vaporized=""/>
    <tripinfo id="4.2" depart="149.00" departLane="W1A1_0" departPos="5.10" departSpeed="0.00" departDelay="0.00" arrival="375.00" arrivalLane="A3E1_0" arrivalPos="496.00" arrivalSpeed="12.70" duration="226.00" routeLength="1994.90" waitingTime="53.00" waitingCount="4" stopTime="0.00" timeLoss="82.61" rerouteNo="0" devices="tripinfo_4.2" vType="DEFAULT_VEHTYPE" speedFactor="1.01" vaporized=""/>
    <tripinfo id="4.3" depart="172.00" departLane="W1A1_0" departPos="5.10" departSpeed="0.00" departDelay="0.00" arrival="402.00" arrivalLane="A3E1_0" arrivalPos="496.00" arrivalSpeed="12.99" duration="230.00" routeLength="1994.90" waitingTime="55.00" waitingCount="4" stopTime="0.00" timeLoss="82.41" rerouteNo="0" devices="tripinfo_4.3" vType="DEFAULT_VEHTYPE" speedFactor="0.97" vaporized=""/>
    <tripinfo id="6.20" depart="176.00" departLane="N1A1_0" departPos="5.10" departSpeed="0.00" departDelay="1.00" arrival="405.00" arrivalLane="B3E2_0" arrivalPos="496.00" arrivalSpeed="11.93" duration="229.00" routeLength="2495.93" waitingTime="1.00" waitingCount="1" stopTime="0.00" timeLoss="28.22" rerouteNo="0" devices="tripinfo_6.20" vType="DEFAULT_VEHTYPE" speedFactor="0.90" vaporized=""/>
    <tripinfo id="6.21" depart="179.00" departLane="N1A1_0" departPos="5.10" departSpeed="0.00" departDelay="0.00" arrival="406.00" arrivalLane="B3E2_0" arrivalPos="496.00" arrivalSpeed="13.65" duration="227.00" routeLength="2495.93" waitingTime="0.00" waitingCount="0" stopTime="0.00" timeLoss="51.69" rerouteNo="0" devices="tripinfo_6.21" vType="DEFAULT_VEHTYPE" speedFactor="1.03" vaporized=""/>
    <tripinfo id="6.22" depart="182.00" departLane="N1A1_0" departPos="5.10" departSpeed="0.00" departDelay="2.00" arrival="408.00" arrivalLane="B3E2_0" arrivalPos="496.00" arrivalSpeed="12.28" duration="226.00" routeLength="2495.93" waitingTime="3.00" waitingCount="1" stopTime="0.00" timeLoss="37.07" rerouteNo="0" devices="tripinfo_6.22" vType="DEFAULT_VEHTYPE" speedFactor="0.96" vaporized=""/>
    <tripinfo id="5.2" depart="238.00" departLane="W2B1_0" departPos="5.10" departSpeed="0.00" departDelay="0.00" arrival="410.00" arrivalLane="B3E2_0" arrivalPos="496.00" arrivalSpeed="14.08" duration="172.00" routeLength="1994.90" waitingTime="3.00" waitingCount="2" stopTime="0.00" timeLoss="40.31" rerouteNo="0" devices="tripinfo_5.2" vType="DEFAULT_VEHTYPE" speedFactor="1.10" vaporized=""/>
    <tripinfo id="6.23" depart="199.00" departLane="N1A1_0" departPos="5.10" departSpeed="0.00" departDelay="0.00" arrival="412.00" arrivalLane="B3E2_0" arrivalPos="496.00" arrivalSpeed="14.91" duration="213.00" routeLength="2495.93" waitingTime="5.00" waitingCount="2" stopTime="0.00" timeLoss="46.04" rerouteNo="0" devices="tripinfo_6.23" vType="DEFAULT_VEHTYPE" speedFactor="1.09" vaporized=""/>
    <tripinfo id="6.24" depart="202.00" departLane="N1A1_0" departPos="5.10" departSpeed="0.00" departDelay="1.00" arrival="414.00" arrivalLane="B3E2_0" arrivalPos="496.00" arrivalSpeed="13.64" duration="212.00" routeLength="2495.93" waitingTime="3.00" waitingCount="1" stopTime="0.00" timeLoss="30.40" rerouteNo="0" devices="tripinfo_6.24" vType="DEFAULT_VEHTYPE" speedFactor="1.00" vaporized=""/>
    <tripinfo id="1.8" depart="279.00" departLane="N1A1_0" departPos="5.10" departSpeed="0.00" departDelay="1.00" arrival="416.00" arrivalLane="B1S1_0" arrivalPos="492.80" arrivalSpeed="12.23" duration="137.00" routeLength="1494.90" waitingTime="0.00" waitingCount="0" stopTime="0.00" timeLoss="14.41" rerouteNo="0" devices="tripinfo_1.8" vType="DEFAULT_VEHTYPE" speedFactor="0.88" vaporized=""/>
    <tripinfo id="6.25" depart="206.00" departLane="N1A1_0" departPos="5.10" departSpeed="0.00" departDelay="0.00" arrival="430.00" arrivalLane="B3E2_0" arrivalPos="496.00" arrivalSpeed="11.42" duration="224.00" routeLength="2495.93" waitingTime="1.00" waitingCount="1" stopTime="0.00" timeLoss="23.21" rerouteNo="0" devices="tripinfo_6.25" vType="DEFAULT_VEHTYPE" speedFactor="0.90" vaporized=""/>
    <tripinfo id="1.9" depart="309.00" departLane="N1A1_0" departPos="5.10" departSpeed="0.00" departDelay="0.00" arrival="435.00" arrivalLane="B1S1_0" arrivalPos="492.80" arrivalSpeed="12.54" duration="126.00" routeLength="1494.90" waitingTime="0.00" waitingCount="0" stopTime="0.00" timeLoss="11.45" rerouteNo="0" devices="tripinfo_1.9" vType="DEFAULT_VEHTYPE" speedFactor="0.94" vaporized=""/>
    <tripinfo id="4.4" depart="213.00" departLane="W1A1_0" departPos="5.10" departSpeed="0.00" departDelay="0.00" arrival="436.00" arrivalLane="A3E1_0" arrivalPos="496.00" arrivalSpeed="11.89" duration="223.00" routeLength="1994.90" waitingTime="32.00" waitingCount="3" stopTime="0.00" timeLoss="58.84" rerouteNo="0" devices="tripinfo_4.4" vType="DEFAULT_VEHTYPE" speedFactor="0.88" vaporized=""/>
    <tripinfo id="4.5" depart="225.00" departLane="W1A1_0" departPos="5.10" departSpeed="0.00" departDelay="0.00" arrival="438.00" arrivalLane="A3E1_0" arrivalPos="496.00" arrivalSpeed="15.94" duration="213.00" routeLength="1994.90" waitingTime="45.00" waitingCount="3" stopTime="0.00" timeLoss="89.28" rerouteNo="0" devices="tripinfo_4.5" vType="DEFAULT_VEHTYPE" speedFactor="1.17" vaporized=""/>
    <tripinfo id="2.2" depart="325.00" departLane="N2A2_0" departPos="5.10" departSpeed="0.00" departDelay="0.00" arrival="460.00" arrivalLane="B2S2_0" arrivalPos="492.80" arrivalSpeed="13.71" duration="135.00" routeLength="1494.90" waitingTime="14.00" waitingCount="1" stopTime="0.00" timeLoss="27.43" rerouteNo="0" devices="tripinfo_2.2" vType="DEFAULT_VEHTYPE" speedFactor="1.01" vaporized=""/>
    <tripinfo id="6.26" depart="221.00" departLane="N1A1_0" departPos="5.10" departSpeed="0.00" departDelay="0.00" arrival="468.00" arrivalLane="B3E2_0" arrivalPos="496.00" arrivalSpeed="11.53" duration="247.00" routeLength="2495.93" waitingTime="6.00" waitingCount="2" stopTime="0.00" timeLoss="34.47" rerouteNo="0" devices="tripinfo_6.26" vType="DEFAULT_VEHTYPE" speedFactor="0.85" vaporized=""/>
    <tripinfo id="6.27" depart="228.00" departLane="N1A1_0" departPos="5.10" departSpeed="0.00" departDelay="2.00" arrival="470.00" arrivalLane="B3E2_0" arrivalPos="496.00" arrivalSpeed="13.45" duration="242.00" routeLength="2495.93" waitingTime="9.00" waitingCount="2" stopTime="0.00" timeLoss="64.14" rerouteNo="0" devices="tripinfo_6.27" vType="DEFAULT_VEHTYPE" speedFactor="1.02" vaporized=""/>
    <tripinfo id="3.7" depart="328.00" departLane="N3A3_0" departPos="5.10" departSpeed="0.00" departDelay="0.00" arrival="470.00" arrivalLane="B3S3_0" arrivalPos="492.80" arrivalSpeed="13.41" duration="142.00" routeLength="1494.90" waitingTime="19.00" waitingCount="1" stopTime="0.00" timeLoss="33.96" rerouteNo="0" devices="tripinfo_3.7" vType="DEFAULT_VEHTYPE" speedFactor="1.00" vaporized=""/>
    <tripinfo id="6.28" depart="239.00" departLane="N1A1_0" departPos="5.10" departSpeed="0.00" departDelay="0.00" arrival="472.00" arrivalLane="B3E2_0" arrivalPos="496.00" arrivalSpeed="12.77" duration="233.00" routeLength="2495.93" waitingTime="5.00" waitingCount="1" stopTime="0.00" timeLoss="52.14" rerouteNo="0" devices="tripinfo_6.28" vType="DEFAULT_VEHTYPE" speedFactor="1.00" vaporized=""/>
    <tripinfo id="6.29" depart="242.00" departLane="N1A1_0" departPos="5.10" departSpeed="0.00" departDelay="1.00" arrival="476.00" arrivalLane="B3E2_0" arrivalPos="496.00" arrivalSpeed="13.14" duration="234.00" routeLength="2495.93" waitingTime="7.00" waitingCount="2" stopTime="0.00" timeLoss="52.80" rerouteNo="0" devices="tripinfo_6.29" vType="DEFAULT_VEHTYPE" speedFactor="1.00" vaporized=""/>
    <tripinfo id="6.30" depart="248.00" departLane="N1A1_0" departPos="5.10" departSpeed="0.00" departDelay="0.00" arrival="478.00" arrivalLane="B3E2_0" arrivalPos="496.00" arrivalSpeed="15.64" duration="230.00" routeLength="2495.93" waitingTime="5.00" waitingCount="2" stopTime="0.00" timeLoss="71.53" rerouteNo="0" devices="tripinfo_6.30" vType="DEFAULT_VEHTYPE" speedFactor="1.14" vaporized=""/>
    <tripinfo id="6.31" depart="253.00" departLane="N1A1_0" departPos="5.10" departSpeed="0.00" departDelay="0.00" arrival="480.00" arrivalLane="B3E2_0" arrivalPos="496.00" arrivalSpeed="13.53" duration="227.00" routeLength="2495.93" waitingTime="7.00" waitingCount="2" stopTime="0.00" timeLoss="50.13" rerouteNo="0" devices="tripinfo_6.31" vType="DEFAULT_VEHTYPE" speedFactor="1.02" vaporized=""/>
    <tripinfo id="6.32" depart="256.00" departLane="N1A1_0" departPos="5.10" departSpeed="0.00" departDelay="1.00" arrival="482.00" arrivalLane="B3E2_0" arrivalPos="496.00" arrivalSpeed="12.88" duration="226.00" routeLength="2495.93" waitingTime="3.00" waitingCount="2" stopTime="0.00" timeLoss="39.54" rerouteNo="0" devices="tripinfo_6.32" vType="DEFAULT_VEHTYPE" speedFactor="0.97" vaporized=""/>
    <tripinfo id="4.6" depart="244.00" departLane="W1A1_0" departPos="5.10" departSpeed="0.00" departDelay="0.00" arrival="484.00" arrivalLane="A3E1_0" arrivalPos="496.00" arrivalSpeed="12.40" duration="240.00" routeLength="1994.90" waitingTime="50.00" waitingCount="4" stopTime="0.00" timeLoss="80.10" rerouteNo="0" devices="tripinfo_4.6" vType="DEFAULT_VEHTYPE" speedFactor="0.90" vaporized=""/>
    <tripinfo id="6.33" depart="259.00" departLane="N1A1_0" departPos="5.10" departSpeed="0.00" departDelay="2.00" arrival="484.00" arrivalLane="B3E2_0" arrivalPos="496.00" arrivalSpeed="14.82" duration="225.00" routeLength="2495.93" waitingTime="1.00" waitingCount="1" stopTime="0.00" timeLoss="57.58" rerouteNo="0" devices="tripinfo_6.33" vType="DEFAULT_VEHTYPE" speedFactor="1.08" vaporized=""/>
    <tripinfo id="6.34" depart="262.00" departLane="N1A1_0" departPos="5.10" departSpeed="0.00" departDelay="4.00" arrival="486.00" arrivalLane="B3E2_0" arrivalPos="496.00" arrivalSpeed="14.42" duration="224.00" routeLength="2495.93" waitingTime="5.00" waitingCount="1" stopTime="0.00" timeLoss="62.24" rerouteNo="0" devices="tripinfo_6.34" vType="DEFAULT_VEHTYPE" speedFactor="1.12" vaporized=""/>
    <tripinfo id="6.35" depart="265.00" departLane="N1A1_0" departPos="5.10" departSpeed="0.00" departDelay="6.00" arrival="488.00" arrivalLane="B3E2_0" arrivalPos="496.00" arrivalSpeed="13.76" duration="223.00" routeLength="2495.93" waitingTime="4.00" waitingCount="1" stopTime="0.00" timeLoss="44.69" rerouteNo="0" devices="tripinfo_6.35" vType="DEFAULT_VEHTYPE" speedFactor="1.02" vaporized=""/>
    <tripinfo id="6.36" depart="276.00" departLane="N1A1_0" departPos="5.10" departSpeed="0.00" departDelay="0.00" arrival="492.00" arrivalLane="B3E2_0" arrivalPos="496.00" arrivalSpeed="11.98" duration="216.00" routeLength="2495.93" waitingTime="3.00" waitingCount="1" stopTime="0.00" timeLoss="23.30" rerouteNo="0" devices="tripinfo_6.36" vType="DEFAULT_VEHTYPE" speedFactor="0.94" vaporized=""/>
    <tripinfo id="4.7" depart="268.00" departLane="W1A1_0" departPos="5.10" departSpeed="0.00" departDelay="0.00" arrival="506.00" arrivalLane="A3E1_0" arrivalPos="496.00" arrivalSpeed="12.82" duration="238.00" routeLength="1994.90" waitingTime="59.00" waitingCount="4" stopTime="0.00" timeLoss="92.32" rerouteNo="0" devices="tripinfo_4.7" vType="DEFAULT_VEHTYPE" speedFactor="0.99" vaporized=""/>
    <tripinfo id="6.37" depart="283.00" departLane="N1A1_0" departPos="5.10" departSpeed="0.00" departDelay="0.00" arrival="511.00" arrivalLane="B3E2_0" arrivalPos="496.00" arrivalSpeed="11.84" duration="228.00" routeLength="2495.93" waitingTime="6.00" waitingCount="1" stopTime="0.00" timeLoss="30.19" rerouteNo="0" devices="tripinfo_6.37" vType="DEFAULT_VEHTYPE" speedFactor="0.91" vaporized=""/>
    <tripinfo id="5.3" depart="326.00" departLane="W2B1_0" departPos="5.10" departSpeed="0.00" departDelay="0.00" arrival="512.00" arrivalLane="B3E2_0" arrivalPos="496.00" arrivalSpeed="13.82" duration="186.00" routeLength="1994.90" waitingTime="13.00" waitingCount="2" stopTime="0.00" timeLoss="46.94" rerouteNo="0" devices="tripinfo_5.3" vType="DEFAULT_VEHTYPE" speedFactor="1.03" vaporized=""/>
    <tripinfo id="6.38" depart="298.00" departLane="N1A1_0" departPos="5.10" departSpeed="0.00" departDelay="0.00" arrival="514.00" arrivalLane="B3E2_0" arrivalPos="496.00" arrivalSpeed="13.53" duration="216.00" routeLength="2495.93" waitingTime="5.00" waitingCount="1" stopTime="0.00" timeLoss="39.31" rerouteNo="0" devices="tripinfo_6.38" vType="DEFAULT_VEHTYPE" speedFactor="1.02" vaporized=""/>