<?xml version="1.0" encoding="UTF-8"?>

<!-- generated on 2021-12-22 10:17:58 by Eclipse SUMO sumo Version 1.10.0
<configuration xmlns:xsi="http://www.w3.org/2001/XMLSchema-instance" xsi:noNamespaceSchemaLocation="http://sumo.dlr.de/xsd/sumoConfiguration.xsd">

    <input>
        <net-file value="C:\Users\Marcus\Desktop\Hauptordner\Studium\Masterstudium\3.%20Semester\Projekt_Sim-Opt\Traffic_Simulation\2X3GridNetwork\2x3net.net.xml"/>
        <route-files value="C:\Users\Marcus\Desktop\Hauptordner\Studium\Masterstudium\3.%20Semester\Projekt_Sim-Opt\Traffic_Simulation\2X3GridNetwork\2x3Routes.xml"/>
        <additional-files value="C:\Users\Marcus\Desktop\Hauptordner\Studium\Masterstudium\3.%20Semester\Projekt_Sim-Opt\Traffic_Simulation\2X3GridNetwork\additionals.xml"/>
    </input>

    <output>
        <tripinfo-output value="tripinfo.xml"/>
        <statistic-output value="statistics.xml"/>
    </output>

    <report>
        <no-step-log value="true"/>
    </report>

    <traci_server>
        <remote-port value="62155"/>
    </traci_server>

</configuration>
-->

<tripinfos xmlns:xsi="http://www.w3.org/2001/XMLSchema-instance" xsi:noNamespaceSchemaLocation="http://sumo.dlr.de/xsd/tripinfo_file.xsd">
    <tripinfo id="4.0" depart="9.00" departLane="W1A1_0" departPos="5.10" departSpeed="0.00" departDelay="0.00" arrival="172.00" arrivalLane="A3E1_0" arrivalPos="496.00" arrivalSpeed="14.67" duration="163.00" routeLength="1994.90" waitingTime="8.00" waitingCount="2" stopTime="0.00" timeLoss="29.48" rerouteNo="0" devices="tripinfo_4.0" vType="DEFAULT_VEHTYPE" speedFactor="1.08" vaporized=""/>
    <tripinfo id="4.1" depart="15.00" departLane="W1A1_0" departPos="5.10" departSpeed="0.00" departDelay="0.00" arrival="177.00" arrivalLane="A3E1_0" arrivalPos="496.00" arrivalSpeed="13.05" duration="162.00" routeLength="1994.90" waitingTime="7.00" waitingCount="1" stopTime="0.00" timeLoss="21.92" rerouteNo="0" devices="tripinfo_4.1" vType="DEFAULT_VEHTYPE" speedFactor="1.03" vaporized=""/>
    <tripinfo id="1.0" depart="59.00" departLane="N1A1_0" departPos="5.10" departSpeed="0.00" departDelay="0.00" arrival="180.00" arrivalLane="B1S1_0" arrivalPos="492.80" arrivalSpeed="14.41" duration="121.00" routeLength="1494.90" waitingTime="0.00" waitingCount="0" stopTime="0.00" timeLoss="24.85" rerouteNo="0" devices="tripinfo_1.0" vType="DEFAULT_VEHTYPE" speedFactor="1.12" vaporized=""/>
    <tripinfo id="5.0" depart="3.00" departLane="W2B1_0" departPos="5.10" departSpeed="0.00" departDelay="0.00" arrival="195.00" arrivalLane="B3E2_0" arrivalPos="496.00" arrivalSpeed="12.38" duration="192.00" routeLength="1994.90" waitingTime="17.00" waitingCount="2" stopTime="0.00" timeLoss="38.51" rerouteNo="0" devices="tripinfo_5.0" vType="DEFAULT_VEHTYPE" speedFactor="0.94" vaporized=""/>
    <tripinfo id="6.0" depart="2.00" departLane="N1A1_0" departPos="5.10" departSpeed="0.00" departDelay="0.00" arrival="197.00" arrivalLane="B3E2_0" arrivalPos="496.00" arrivalSpeed="13.91" duration="195.00" routeLength="2495.93" waitingTime="0.00" waitingCount="0" stopTime="0.00" timeLoss="24.19" rerouteNo="0" devices="tripinfo_6.0" vType="DEFAULT_VEHTYPE" speedFactor="1.06" vaporized=""/>
    <tripinfo id="6.1" depart="5.00" departLane="N1A1_0" departPos="5.10" departSpeed="0.00" departDelay="0.00" arrival="198.00" arrivalLane="B3E2_0" arrivalPos="496.00" arrivalSpeed="13.16" duration="193.00" routeLength="2495.93" waitingTime="0.00" waitingCount="0" stopTime="0.00" timeLoss="14.67" rerouteNo="0" devices="tripinfo_6.1" vType="DEFAULT_VEHTYPE" speedFactor="1.01" vaporized=""/>
    <tripinfo id="3.0" depart="72.00" departLane="N3A3_0" departPos="5.10" departSpeed="0.00" departDelay="0.00" arrival="245.00" arrivalLane="B3S3_0" arrivalPos="492.80" arrivalSpeed="12.56" duration="173.00" routeLength="1494.90" waitingTime="44.00" waitingCount="1" stopTime="0.00" timeLoss="56.33" rerouteNo="0" devices="tripinfo_3.0" vType="DEFAULT_VEHTYPE" speedFactor="0.93" vaporized=""/>
    <tripinfo id="3.1" depart="88.00" departLane="N3A3_0" departPos="5.10" departSpeed="0.00" departDelay="0.00" arrival="247.00" arrivalLane="B3S3_0" arrivalPos="492.80" arrivalSpeed="12.74" duration="159.00" routeLength="1494.90" waitingTime="28.00" waitingCount="2" stopTime="0.00" timeLoss="51.59" rerouteNo="0" devices="tripinfo_3.1" vType="DEFAULT_VEHTYPE" speedFactor="1.01" vaporized=""/>
    <tripinfo id="6.2" depart="21.00" departLane="N1A1_0" departPos="5.10" departSpeed="0.00" departDelay="0.00" arrival="259.00" arrivalLane="B3E2_0" arrivalPos="496.00" arrivalSpeed="10.27" duration="238.00" routeLength="2495.93" waitingTime="0.00" waitingCount="0" stopTime="0.00" timeLoss="20.53" rerouteNo="0" devices="tripinfo_6.2" vType="DEFAULT_VEHTYPE" speedFactor="0.83" vaporized=""/>
    <tripinfo id="5.1" depart="44.00" departLane="W2B1_0" departPos="5.10" departSpeed="0.00" departDelay="0.00" arrival="261.00" arrivalLane="B3E2_0" arrivalPos="496.00" arrivalSpeed="14.37" duration="217.00" routeLength="1994.90" waitingTime="35.00" waitingCount="1" stopTime="0.00" timeLoss="84.65" rerouteNo="0" devices="tripinfo_5.1" vType="DEFAULT_VEHTYPE" speedFactor="1.09" vaporized=""/>
    <tripinfo id="5.2" depart="64.00" departLane="W2B1_0" departPos="5.10" departSpeed="0.00" departDelay="0.00" arrival="263.00" arrivalLane="B3E2_0" arrivalPos="496.00" arrivalSpeed="12.74" duration="199.00" routeLength="1994.90" waitingTime="15.00" waitingCount="1" stopTime="0.00" timeLoss="53.22" rerouteNo="0" devices="tripinfo_5.2" vType="DEFAULT_VEHTYPE" speedFactor="0.99" vaporized=""/>
    <tripinfo id="5.3" depart="84.00" departLane="W2B1_0" departPos="5.10" departSpeed="0.00" departDelay="0.00" arrival="264.00" arrivalLane="B3E2_0" arrivalPos="496.00" arrivalSpeed="15.54" duration="180.00" routeLength="1994.90" waitingTime="0.00" waitingCount="0" stopTime="0.00" timeLoss="55.65" rerouteNo="0" devices="tripinfo_5.3" vType="DEFAULT_VEHTYPE" speedFactor="1.16" vaporized=""/>
    <tripinfo id="6.3" depart="27.00" departLane="N1A1_0" departPos="5.10" departSpeed="0.00" departDelay="0.00" arrival="266.00" arrivalLane="B3E2_0" arrivalPos="496.00" arrivalSpeed="13.84" duration="239.00" routeLength="2495.93" waitingTime="9.00" waitingCount="1" stopTime="0.00" timeLoss="66.08" rerouteNo="0" devices="tripinfo_6.3" vType="DEFAULT_VEHTYPE" speedFactor="1.05" vaporized=""/>
    <tripinfo id="6.4" depart="30.00" departLane="N1A1_0" departPos="5.10" departSpeed="0.00" departDelay="2.00" arrival="268.00" arrivalLane="B3E2_0" arrivalPos="496.00" arrivalSpeed="11.71" duration="238.00" routeLength="2495.93" waitingTime="9.00" waitingCount="1" stopTime="0.00" timeLoss="33.93" rerouteNo="0" devices="tripinfo_6.4" vType="DEFAULT_VEHTYPE" speedFactor="0.89" vaporized=""/>
    <tripinfo id="6.5" depart="34.00" departLane="N1A1_0" departPos="5.10" departSpeed="0.00" departDelay="0.00" arrival="270.00" arrivalLane="B3E2_0" arrivalPos="496.00" arrivalSpeed="12.39" duration="236.00" routeLength="2495.93" waitingTime="8.00" waitingCount="1" stopTime="0.00" timeLoss="42.84" rerouteNo="0" devices="tripinfo_6.5" vType="DEFAULT_VEHTYPE" speedFactor="0.94" vaporized=""/>
    <tripinfo id="6.6" depart="43.00" departLane="N1A1_0" departPos="5.10" departSpeed="0.00" departDelay="0.00" arrival="273.00" arrivalLane="B3E2_0" arrivalPos="496.00" arrivalSpeed="11.34" duration="230.00" routeLength="2495.93" waitingTime="0.00" waitingCount="0" stopTime="0.00" timeLoss="18.81" rerouteNo="0" devices="tripinfo_6.6" vType="DEFAULT_VEHTYPE" speedFactor="0.86" vaporized=""/>
    <tripinfo id="6.7" depart="46.00" departLane="N1A1_0" departPos="5.10" departSpeed="0.00" departDelay="2.00" arrival="275.00" arrivalLane="B3E2_0" arrivalPos="496.00" arrivalSpeed="13.00" duration="229.00" routeLength="2495.93" waitingTime="0.00" waitingCount="0" stopTime="0.00" timeLoss="52.29" rerouteNo="0" devices="tripinfo_6.7" vType="DEFAULT_VEHTYPE" speedFactor="1.03" vaporized=""/>
    <tripinfo id="6.8" depart="53.00" departLane="N1A1_0" departPos="5.10" departSpeed="0.00" departDelay="0.00" arrival="276.00" arrivalLane="B3E2_0" arrivalPos="496.00" arrivalSpeed="14.07" duration="223.00" routeLength="2495.93" waitingTime="8.00" waitingCount="1" stopTime="0.00" timeLoss="50.75" rerouteNo="0" devices="tripinfo_6.8" vType="DEFAULT_VEHTYPE" speedFactor="1.05" vaporized=""/>
    <tripinfo id="2.0" depart="151.00" departLane="N2A2_0" departPos="5.10" departSpeed="0.00" departDelay="0.00" arrival="291.00" arrivalLane="B2S2_0" arrivalPos="492.80" arrivalSpeed="12.84" duration="140.00" routeLength="1494.90" waitingTime="13.00" waitingCount="1" stopTime="0.00" timeLoss="27.09" rerouteNo="0" devices="tripinfo_2.0" vType="DEFAULT_VEHTYPE" speedFactor="0.96" vaporized=""/>
    <tripinfo id="1.1" depart="163.00" departLane="N1A1_0" departPos="5.10" departSpeed="0.00" departDelay="0.00" arrival="293.00" arrivalLane="B1S1_0" arrivalPos="492.80" arrivalSpeed="13.68" duration="130.00" routeLength="1494.90" waitingTime="7.00" waitingCount="1" stopTime="0.00" timeLoss="26.00" rerouteNo="0" devices="tripinfo_1.1" vType="DEFAULT_VEHTYPE" speedFactor="1.04" vaporized=""/>
    <tripinfo id="6.9" depart="72.00" departLane="N1A1_0" departPos="5.10" departSpeed="0.00" departDelay="0.00" arrival="294.00" arrivalLane="B3E2_0" arrivalPos="496.00" arrivalSpeed="11.35" duration="222.00" routeLength="2495.93" waitingTime="0.00" waitingCount="0" stopTime="0.00" timeLoss="16.08" rerouteNo="0" devices="tripinfo_6.9" vType="DEFAULT_VEHTYPE" speedFactor="0.88" vaporized=""/>
    <tripinfo id="6.10" depart="76.00" departLane="N1A1_0" departPos="5.10" departSpeed="0.00" departDelay="0.00" arrival="295.00" arrivalLane="B3E2_0" arrivalPos="496.00" arrivalSpeed="12.62" duration="219.00" routeLength="2495.93" waitingTime="0.00" waitingCount="0" stopTime="0.00" timeLoss="27.02" rerouteNo="0" devices="tripinfo_6.10" vType="DEFAULT_VEHTYPE" speedFactor="0.94" vaporized=""/>
    <tripinfo id="6.11" depart="87.00" departLane="N1A1_0" departPos="5.10" departSpeed="0.00" departDelay="0.00" arrival="297.00" arrivalLane="B3E2_0" arrivalPos="496.00" arrivalSpeed="13.16" duration="210.00" routeLength="2495.93" waitingTime="0.00" waitingCount="0" stopTime="0.00" timeLoss="32.55" rerouteNo="0" devices="tripinfo_6.11" vType="DEFAULT_VEHTYPE" speedFactor="1.02" vaporized=""/>
    <tripinfo id="6.12" depart="93.00" departLane="N1A1_0" departPos="5.10" departSpeed="0.00" departDelay="0.00" arrival="299.00" arrivalLane="B3E2_0" arrivalPos="496.00" arrivalSpeed="13.52" duration="206.00" routeLength="2495.93" waitingTime="0.00" waitingCount="0" stopTime="0.00" timeLoss="20.64" rerouteNo="0" devices="tripinfo_6.12" vType="DEFAULT_VEHTYPE" speedFactor="0.98" vaporized=""/>
    <tripinfo id="4.2" depart="79.00" departLane="W1A1_0" departPos="5.10" departSpeed="0.00" departDelay="0.00" arrival="301.00" arrivalLane="A3E1_0" arrivalPos="496.00" arrivalSpeed="12.61" duration="222.00" routeLength="1994.90" waitingTime="45.00" waitingCount="2" stopTime="0.00" timeLoss="67.72" rerouteNo="0" devices="tripinfo_4.2" vType="DEFAULT_VEHTYPE" speedFactor="0.94" vaporized=""/>
    <tripinfo id="3.2" depart="133.00" departLane="N3A3_0" departPos="5.10" departSpeed="0.00" departDelay="0.00" arrival="301.00" arrivalLane="B3S3_0" arrivalPos="492.80" arrivalSpeed="13.75" duration="168.00" routeLength="1494.90" waitingTime="48.00" waitingCount="1" stopTime="0.00" timeLoss="61.73" rerouteNo="0" devices="tripinfo_3.2" vType="DEFAULT_VEHTYPE" speedFactor="1.02" vaporized=""/>
    <tripinfo id="4.3" depart="123.00" departLane="W1A1_0" departPos="5.10" departSpeed="0.00" departDelay="0.00" arrival="303.00" arrivalLane="A3E1_0" arrivalPos="496.00" arrivalSpeed="12.70" duration="180.00" routeLength="1994.90" waitingTime="3.00" waitingCount="1" stopTime="0.00" timeLoss="25.36" rerouteNo="0" devices="tripinfo_4.3" vType="DEFAULT_VEHTYPE" speedFactor="0.93" vaporized=""/>
    <tripinfo id="3.3" depart="146.00" departLane="N3A3_0" departPos="5.10" departSpeed="0.00" departDelay="0.00" arrival="303.00" arrivalLane="B3S3_0" arrivalPos="492.80" arrivalSpeed="13.18" duration="157.00" routeLength="1494.90" waitingTime="39.00" waitingCount="1" stopTime="0.00" timeLoss="51.91" rerouteNo="0" devices="tripinfo_3.3" vType="DEFAULT_VEHTYPE" speedFactor="1.03" vaporized=""/>
    <tripinfo id="5.4" depart="106.00" departLane="W2B1_0" departPos="5.10" departSpeed="0.00" departDelay="0.00" arrival="316.00" arrivalLane="B3E2_0" arrivalPos="496.00" arrivalSpeed="10.92" duration="210.00" routeLength="1994.90" waitingTime="24.00" waitingCount="1" stopTime="0.00" timeLoss="44.66" rerouteNo="0" devices="tripinfo_5.4" vType="DEFAULT_VEHTYPE" speedFactor="0.87" vaporized=""/>
    <tripinfo id="6.13" depart="103.00" departLane="N1A1_0" departPos="5.10" departSpeed="0.00" departDelay="0.00" arrival="322.00" arrivalLane="B3E2_0" arrivalPos="496.00" arrivalSpeed="11.54" duration="219.00" routeLength="2495.93" waitingTime="0.00" waitingCount="0" stopTime="0.00" timeLoss="15.63" rerouteNo="0" devices="tripinfo_6.13" vType="DEFAULT_VEHTYPE" speedFactor="0.89" vaporized=""/>
    <tripinfo id="6.14" depart="106.00" departLane="N1A1_0" departPos="5.10" departSpeed="0.00" departDelay="1.00" arrival="354.00" arrivalLane="B3E2_0" arrivalPos="496.00" arrivalSpeed="10.40" duration="248.00" routeLength="2495.93" waitingTime="6.00" waitingCount="1" stopTime="0.00" timeLoss="28.57" rerouteNo="0" devices="tripinfo_6.14" vType="DEFAULT_VEHTYPE" speedFactor="0.83" vaporized=""/>
    <tripinfo id="1.2" depart="234.00" departLane="N1A1_0" departPos="5.10" departSpeed="0.00" departDelay="0.00" arrival="354.00" arrivalLane="B1S1_0" arrivalPos="492.80" arrivalSpeed="14.06" duration="120.00" routeLength="1494.90" waitingTime="0.00" waitingCount="0" stopTime="0.00" timeLoss="19.66" rerouteNo="0" devices="tripinfo_1.2" vType="DEFAULT_VEHTYPE" speedFactor="1.08" vaporized=""/>
    <tripinfo id="6.15" depart="113.00" departLane="N1A1_0" departPos="5.10" departSpeed="0.00" departDelay="0.00" arrival="355.00" arrivalLane="B3E2_0" arrivalPos="496.00" arrivalSpeed="12.05" duration="242.00" routeLength="2495.93" waitingTime="6.00" waitingCount="1" stopTime="0.00" timeLoss="45.19" rerouteNo="0" devices="tripinfo_6.15" vType="DEFAULT_VEHTYPE" speedFactor="0.92" vaporized=""/>
    <tripinfo id="2.1" depart="188.00" departLane="N2A2_0" departPos="5.10" departSpeed="0.00" departDelay="0.00" arrival="355.00" arrivalLane="B2S2_0" arrivalPos="492.80" arrivalSpeed="10.65" duration="167.00" routeLength="1494.90" waitingTime="21.00" waitingCount="2" stopTime="0.00" timeLoss="40.55" rerouteNo="0" devices="tripinfo_2.1" vType="DEFAULT_VEHTYPE" speedFactor="0.85" vaporized=""/>
    <tripinfo id="6.16" depart="117.00" departLane="N1A1_0" departPos="5.10" departSpeed="0.00" departDelay="0.00" arrival="357.00" arrivalLane="B3E2_0" arrivalPos="496.00" arrivalSpeed="12.49" duration="240.00" routeLength="2495.93" waitingTime="5.00" waitingCount="1" stopTime="0.00" timeLoss="49.31" rerouteNo="0" devices="tripinfo_6.16" vType="DEFAULT_VEHTYPE" speedFactor="0.95" vaporized=""/>
    <tripinfo id="2.2" depart="235.00" departLane="N2A2_0" departPos="5.10" departSpeed="0.00" departDelay="0.00" arrival="357.00" arrivalLane="B2S2_0" arrivalPos="492.80" arrivalSpeed="14.10" duration="122.00" routeLength="1494.90" waitingTime="1.00" waitingCount="1" stopTime="0.00" timeLoss="24.95" rerouteNo="0" devices="tripinfo_2.2" vType="DEFAULT_VEHTYPE" speedFactor="1.12" vaporized=""/>
    <tripinfo id="6.17" depart="121.00" departLane="N1A1_0" departPos="5.10" departSpeed="0.00" departDelay="0.00" arrival="359.00" arrivalLane="B3E2_0" arrivalPos="496.00" arrivalSpeed="14.70" duration="238.00" routeLength="2495.93" waitingTime="5.00" waitingCount="1" stopTime="0.00" timeLoss="78.08" rerouteNo="0" devices="tripinfo_6.17" vType="DEFAULT_VEHTYPE" speedFactor="1.13" vaporized=""/>
    <tripinfo id="6.18" depart="124.00" departLane="N1A1_0" departPos="5.10" departSpeed="0.00" departDelay="0.00" arrival="360.00" arrivalLane="B3E2_0" arrivalPos="496.00" arrivalSpeed="15.00" duration="236.00" routeLength="2495.93" waitingTime="4.00" waitingCount="1" stopTime="0.00" timeLoss="82.46" rerouteNo="0" devices="tripinfo_6.18" vType="DEFAULT_VEHTYPE" speedFactor="1.18" vaporized=""/>
    <tripinfo id="3.4" depart="192.00" departLane="N3A3_0" departPos="5.10" departSpeed="0.00" departDelay="0.00" arrival="360.00" arrivalLane="B3S3_0" arrivalPos="492.80" arrivalSpeed="13.61" duration="168.00" routeLength="1494.90" waitingTime="48.00" waitingCount="1" stopTime="0.00" timeLoss="61.42" rerouteNo="0" devices="tripinfo_3.4" vType="DEFAULT_VEHTYPE" speedFactor="1.02" vaporized=""/>
    <tripinfo id="6.19" depart="127.00" departLane="N1A1_0" departPos="5.10" departSpeed="0.00" departDelay="0.00" arrival="362.00" arrivalLane="B3E2_0" arrivalPos="496.00" arrivalSpeed="15.71" duration="235.00" routeLength="2495.93" waitingTime="4.00" waitingCount="1" stopTime="0.00" timeLoss="78.49" rerouteNo="0" devices="tripinfo_6.19" vType="DEFAULT_VEHTYPE" speedFactor="1.15" vaporized=""/>
    <tripinfo id="4.4" depart="180.00" departLane="W1A1_0" departPos="5.10" departSpeed="0.00" departDelay="0.00" arrival="363.00" arrivalLane="A3E1_0" arrivalPos="496.00" arrivalSpeed="11.76" duration="183.00" routeLength="1994.90" waitingTime="1.00" waitingCount="1" stopTime="0.00" timeLoss="23.32" rerouteNo="0" devices="tripinfo_4.4" vType="DEFAULT_VEHTYPE" speedFactor="0.90" vaporized=""/>
    <tripinfo id="6.20" depart="130.00" departLane="N1A1_0" departPos="5.10" departSpeed="0.00" departDelay="1.00" arrival="370.00" arrivalLane="B3E2_0" arrivalPos="496.00" arrivalSpeed="12.83" duration="240.00" routeLength="2495.93" waitingTime="15.00" waitingCount="3" stopTime="0.00" timeLoss="59.99" rerouteNo="0" devices="tripinfo_6.20" vType="DEFAULT_VEHTYPE" speedFactor="1.01" vaporized=""/>
    <tripinfo id="6.21" depart="133.00" departLane="N1A1_0" departPos="5.10" departSpeed="0.00" departDelay="3.00" arrival="371.00" arrivalLane="B3E2_0" arrivalPos="496.00" arrivalSpeed="15.77" duration="238.00" routeLength="2495.93" waitingTime="10.00" waitingCount="3" stopTime="0.00" timeLoss="83.51" rerouteNo="0" devices="tripinfo_6.21" vType="DEFAULT_VEHTYPE" speedFactor="1.17" vaporized=""/>
    <tripinfo id="6.22" depart="136.00" departLane="N1A1_0" departPos="5.10" departSpeed="0.00" departDelay="4.00" arrival="374.00" arrivalLane="B3E2_0" arrivalPos="496.00" arrivalSpeed="13.01" duration="238.00" routeLength="2495.93" waitingTime="7.00" waitingCount="1" stopTime="0.00" timeLoss="56.67" rerouteNo="0" devices="tripinfo_6.22" vType="DEFAULT_VEHTYPE" speedFactor="0.99" vaporized=""/>
    <tripinfo id="6.23" depart="139.00" departLane="N1A1_0" departPos="5.10" departSpeed="0.00" departDelay="3.00" arrival="377.00" arrivalLane="B3E2_0" arrivalPos="496.00" arrivalSpeed="12.59" duration="238.00" routeLength="2495.93" waitingTime="6.00" waitingCount="1" stopTime="0.00" timeLoss="52.05" rerouteNo="0" devices="tripinfo_6.23" vType="DEFAULT_VEHTYPE" speedFactor="0.97" vaporized=""/>
    <tripinfo id="6.24" depart="142.00" departLane="N1A1_0" departPos="5.10" departSpeed="0.00" departDelay="0.00" arrival="379.00" arrivalLane="B3E2_0" arrivalPos="496.00" arrivalSpeed="15.47" duration="237.00" routeLength="2495.93" waitingTime="5.00" waitingCount="1" stopTime="0.00" timeLoss="83.44" rerouteNo="0" devices="tripinfo_6.24" vType="DEFAULT_VEHTYPE" speedFactor="1.18" vaporized=""/>
    <tripinfo id="6.25" depart="145.00" departLane="N1A1_0" departPos="5.10" departSpeed="0.00" departDelay="1.00" arrival="380.00" arrivalLane="B3E2_0" arrivalPos="496.00" arrivalSpeed="14.32" duration="235.00" routeLength="2495.93" waitingTime="4.00" waitingCount="1" stopTime="0.00" timeLoss="70.78" rerouteNo="0" devices="tripinfo_6.25" vType="DEFAULT_VEHTYPE" speedFactor="1.10" vaporized=""/>
    <tripinfo id="6.26" depart="148.00" departLane="N1A1_0" departPos="5.10" departSpeed="0.00" departDelay="3.00" arrival="386.00" arrivalLane="B3E2_0" arrivalPos="496.00" arrivalSpeed="11.79" duration="238.00" routeLength="2495.93" waitingTime="12.00" waitingCount="2" stopTime="0.00" timeLoss="37.49" rerouteNo="0" devices="tripinfo_6.26" vType="DEFAULT_VEHTYPE" speedFactor="0.90" vaporized=""/>
    <tripinfo id="6.27" depart="152.00" departLane="N1A1_0" departPos="5.10" departSpeed="0.00" departDelay="0.00" arrival="388.00" arrivalLane="B3E2_0" arrivalPos="496.00" arrivalSpeed="14.33" duration="236.00" routeLength="2495.93" waitingTime="9.00" waitingCount="2" stopTime="0.00" timeLoss="69.86" rerouteNo="0" devices="tripinfo_6.27" vType="DEFAULT_VEHTYPE" speedFactor="1.09" vaporized=""/>
    <tripinfo id="6.28" depart="159.00" departLane="N1A1_0" departPos="5.10" departSpeed="0.00" departDelay="0.00" arrival="389.00" arrivalLane="B3E2_0" arrivalPos="496.00" arrivalSpeed="14.30" duration="230.00" routeLength="2495.93" waitingTime="9.00" waitingCount="2" stopTime="0.00" timeLoss="56.27" rerouteNo="0" devices="tripinfo_6.28" vType="DEFAULT_VEHTYPE" speedFactor="1.04" vaporized=""/>
    <tripinfo id="1.3" depart="257.00" departLane="N1A1_0" departPos="5.10" departSpeed="0.00" departDelay="0.00" arrival="390.00" arrivalLane="B1S1_0" arrivalPos="492.80" arrivalSpeed="11.56" duration="133.00" routeLength="1494.90" waitingTime="0.00" waitingCount="0" stopTime="0.00" timeLoss="10.19" rerouteNo="0" devices="tripinfo_1.3" vType="DEFAULT_VEHTYPE" speedFactor="0.88" vaporized=""/>
    <tripinfo id="6.29" depart="166.00" departLane="N1A1_0" departPos="5.10" departSpeed="0.00" departDelay="2.00" arrival="391.00" arrivalLane="B3E2_0" arrivalPos="496.00" arrivalSpeed="14.12" duration="225.00" routeLength="2495.93" waitingTime="7.00" waitingCount="2" stopTime="0.00" timeLoss="58.92" rerouteNo="0" devices="tripinfo_6.29" vType="DEFAULT_VEHTYPE" speedFactor="1.09" vaporized=""/>
    <tripinfo id="6.30" depart="171.00" departLane="N1A1_0" departPos="5.10" departSpeed="0.00" departDelay="0.00" arrival="393.00" arrivalLane="B3E2_0" arrivalPos="496.00" arrivalSpeed="13.45" duration="222.00" routeLength="2495.93" waitingTime="3.00" waitingCount="1" stopTime="0.00" timeLoss="40.37" rerouteNo="0" devices="tripinfo_6.30" vType="DEFAULT_VEHTYPE" speedFactor="1.00" vaporized=""/>
    <tripinfo id="6.31" depart="182.00" departLane="N1A1_0" departPos="5.10" departSpeed="0.00" departDelay="0.00" arrival="414.00" arrivalLane="B3E2_0" arrivalPos="496.00" arrivalSpeed="11.67" duration="232.00" routeLength="2495.93" waitingTime="7.00" waitingCount="1" stopTime="0.00" timeLoss="25.84" rerouteNo="0" devices="tripinfo_6.31" vType="DEFAULT_VEHTYPE" speedFactor="0.88" vaporized=""/>
    <tripinfo id="3.5" depart="282.00" departLane="N3A3_0" departPos="5.10" departSpeed="0.00" departDelay="0.00" arrival="419.00" arrivalLane="B3S3_0" arrivalPos="492.80" arrivalSpeed="13.07" duration="137.00" routeLength="1494.90" waitingTime="12.00" waitingCount="2" stopTime="0.00" timeLoss="30.97" rerouteNo="0" devices="tripinfo_3.5" vType="DEFAULT_VEHTYPE" speedFactor="1.02" vaporized=""/>
    <tripinfo id="3.6" depart="290.00" departLane="N3A3_0" departPos="5.10" departSpeed="0.00" departDelay="0.00" arrival="424.00" arrivalLane="B3S3_0" arrivalPos="492.80" arrivalSpeed="12.06" duration="134.00" routeLength="1494.90" waitingTime="0.00" waitingCount="0" stopTime="0.00" timeLoss="18.78" rerouteNo="0" devices="tripinfo_3.6" vType="DEFAULT_VEHTYPE" speedFactor="0.94" vaporized=""/>
    <tripinfo id="6.32" depart="185.00" departLane="N1A1_0" departPos="5.10" departSpeed="0.00" departDelay="0.00" arrival="436.00" arrivalLane="B3E2_0" arrivalPos="496.00" arrivalSpeed="11.63" duration="251.00" routeLength="2495.93" waitingTime="10.00" waitingCount="2" stopTime="0.00" timeLoss="37.88" rerouteNo="0" devices="tripinfo_6.32" vType="DEFAULT_VEHTYPE" speedFactor="0.85" vaporized=""/>
    <tripinfo id="6.33" depart="188.00" departLane="N1A1_0" departPos="5.10" departSpeed="0.00" departDelay="0.00" arrival="437.00" arrivalLane="B3E2_0" arrivalPos="496.00" arrivalSpeed="14.30" duration="249.00" routeLength="2495.93" waitingTime="8.00" waitingCount="2" stopTime="0.00" timeLoss="94.64" rerouteNo="0" devices="tripinfo_6.33" vType="DEFAULT_VEHTYPE" speedFactor="1.17" vaporized=""/>
    <tripinfo id="6.34" depart="209.00" departLane="N1A1_0" departPos="5.10" departSpeed="0.00" departDelay="0.00" arrival="439.00" arrivalLane="B3E2_0" arrivalPos="496.00" arrivalSpeed="14.18" duration="230.00" routeLength="2495.93" waitingTime="6.00" waitingCount="1" stopTime="0.00" timeLoss="64.59" rerouteNo="0" devices="tripinfo_6.34" vType="DEFAULT_VEHTYPE" speedFactor="1.10" vaporized=""/>
    <tripinfo id="6.35" depart="212.00" departLane="N1A1_0" departPos="5.10" departSpeed="0.00" departDelay="2.00" arrival="441.00" arrivalLane="B3E2_0" arrivalPos="496.00" arrivalSpeed="13.85" duration="229.00" routeLength="2495.93" waitingTime="5.00" waitingCount="1" stopTime="0.00" timeLoss="48.66" rerouteNo="0" devices="tripinfo_6.35" vType="DEFAULT_VEHTYPE" speedFactor="1.00" vaporized=""/>
    <tripinfo id="5.5" depart="222.00" departLane="W2B1_0" departPos="5.10" departSpeed="0.00" departDelay="0.00" arrival="442.00" arrivalLane="B3E2_0" arrivalPos="496.00" arrivalSpeed="15.32" duration="220.00" routeLength="1994.90" waitingTime="40.00" waitingCount="2" stopTime="0.00" timeLoss="94.16" rerouteNo="0" devices="tripinfo_5.5" vType="DEFAULT_VEHTYPE" speedFactor="1.14" vaporized=""/>
    <tripinfo id="6.36" depart="215.00" departLane="N1A1_0" departPos="5.10" departSpeed="0.00" departDelay="3.00" arrival="444.00" arrivalLane="B3E2_0" arrivalPos="496.00" arrivalSpeed="13.52" duration="229.00" routeLength="2495.93" waitingTime="13.00" waitingCount="2" stopTime="0.00" timeLoss="47.94" rerouteNo="0" devices="tripinfo_6.36" vType="DEFAULT_VEHTYPE" speedFactor="1.00" vaporized=""/>
    <tripinfo id="6.37" depart="218.00" departLane="N1A1_0" departPos="5.10" departSpeed="0.00" departDelay="4.00" arrival="446.00" arrivalLane="B3E2_0" arrivalPos="496.00" arrivalSpeed="11.83" duration="228.00" routeLength="2495.93" waitingTime="0.00" waitingCount="0" stopTime="0.00" timeLoss="27.61" rerouteNo="0" devices="tripinfo_6.37" vType="DEFAULT_VEHTYPE" speedFactor="0.90" vaporized=""/>
    <tripinfo id="6.38" depart="225.00" departLane="N1A1_0" departPos="5.10" departSpeed="0.00" departDelay="0.00" arrival="448.00" arrivalLane="B3E2_0" arrivalPos="496.00" arrivalSpeed="13.74" duration="223.00" routeLength="2495.93" waitingTime="0.00" waitingCount="0" stopTime="0.00" timeLoss="46.07" rerouteNo="0" devices="tripinfo_6.38" vType="DEFAULT_VEHTYPE" speedFactor="1.02" vaporized=""/>
    <tripinfo id="6.39" depart="230.00" departLane="N1A1_0" departPos="5.10" departSpeed="0.00" departDelay="0.00" arrival="450.00" arrivalLane="B3E2_0" arrivalPos="496.00" arrivalSpeed="12.21" duration="220.00" routeLength="2495.93" waitingTime="0.00" waitingCount="0" stopTime="0.00" timeLoss="33.78" rerouteNo="0" devices="tripinfo_6.39" vType="DEFAULT_VEHTYPE" speedFactor="0.97" vaporized=""/>
    <tripinfo id="6.40" depart="244.00" departLane="N1A1_0" departPos="5.10" departSpeed="0.00" departDelay="0.00" arrival="452.00" arrivalLane="B3E2_0" arrivalPos="496.00" arrivalSpeed="14.09" duration="208.00" routeLength="2495.93" waitingTime="9.00" waitingCount="1" stopTime="0.00" timeLoss="29.48" rerouteNo="0" devices="tripinfo_6.40" vType="DEFAULT_VEHTYPE" speedFactor="1.02" vaporized=""/>
    <tripinfo id="6.41" depart="248.00" departLane="N1A1_0" departPos="5.10" departSpeed="0.00" departDelay="0.00" arrival="456.00" arrivalLane="B3E2_0" arrivalPos="496.00" arrivalSpeed="12.65" duration="208.00" routeLength="2495.93" waitingTime="3.00" waitingCount="1" stopTime="0.00" timeLoss="24.44" rerouteNo="0" devices="tripinfo_6.41" vType="DEFAULT_VEHTYPE" speedFactor="0.99" vaporized=""/>
    <tripinfo id="6.42" depart="254.00" departLane="N1A1_0" departPos="5.10" departSpeed="0.00" departDelay="0.00" arrival="466.00" arrivalLane="B3E2_0" arrivalPos="496.00" arrivalSpeed="12.55" duration="212.00" routeLength="2495.93" waitingTime="0.00" waitingCount="0" stopTime="0.00" timeLoss="18.96" rerouteNo="0" devices="tripinfo_6.42" vType="DEFAULT_VEHTYPE" speedFactor="0.94" vaporized=""/>
    <tripinfo id="1.4" depart="336.00" departLane="N1A1_0" departPos="5.10" departSpeed="0.00" departDelay="0.00" arrival="466.00" arrivalLane="B1S1_0" arrivalPos="492.80" arrivalSpeed="13.89" duration="130.00" routeLength="1494.90" waitingTime="6.00" waitingCount="1" stopTime="0.00" timeLoss="22.26" rerouteNo="0" devices="tripinfo_1.4" vType="DEFAULT_VEHTYPE" speedFactor="1.00" vaporized=""/>
    <tripinfo id="1.5" depart="355.00" departLane="N1A1_0" departPos="5.10" departSpeed="0.00" departDelay="1.00" arrival="473.00" arrivalLane="B1S1_0" arrivalPos="492.80" arrivalSpeed="13.56" duration="118.00" routeLength="1494.90" waitingTime="0.00" waitingCount="0" stopTime="0.00" timeLoss="11.42" rerouteNo="0" devices="tripinfo_1.5" vType="DEFAULT_VEHTYPE" speedFactor="1.02" vaporized=""/>
    <tripinfo id="3.7" depart="322.00" departLane="N3A3_0" departPos="5.10" departSpeed="0.00" departDelay="0.00" arrival="478.00" arrivalLane="B3S3_0" arrivalPos="492.80" arrivalSpeed="13.91" duration="156.00" routeLength="1494.90" waitingTime="36.00" waitingCount="1" stopTime="0.00" timeLoss="49.22" rerouteNo="0" devices="tripinfo_3.7" vType="DEFAULT_VEHTYPE" speedFactor="1.02" vaporized=""/>
    <tripinfo id="4.5" depart="261.00" departLane="W1A1_0" departPos="5.10" departSpeed="0.00" departDelay="0.00" arrival="481.00" arrivalLane="A3E1_0" arrivalPos="496.00" arrivalSpeed="11.99" duration="220.00" routeLength="1994.90" waitingTime="38.00" waitingCount="2" stopTime="0.00" timeLoss="61.24" rerouteNo="0" devices="tripinfo_4.5" vType="DEFAULT_VEHTYPE" speedFactor="0.91" vaporized=""/>