<?xml version="1.0" encoding="UTF-8"?>

<!-- generated on 2021-11-24 12:45:48 by Eclipse SUMO GUI Version 1.10.0
<configuration xmlns:xsi="http://www.w3.org/2001/XMLSchema-instance" xsi:noNamespaceSchemaLocation="http://sumo.dlr.de/xsd/sumoConfiguration.xsd">

    <input>
        <net-file value="C:\Users\Lenovo\Documents\GitHub\Traffic_Simulation\2X3GridNetwork\2x3net.net.xml"/>
        <route-files value="C:\Users\Lenovo\Documents\GitHub\Traffic_Simulation\2X3GridNetwork\2x3Routes.xml"/>
        <additional-files value="C:\Users\Lenovo\Documents\GitHub\Traffic_Simulation\2X3GridNetwork\additionals.xml"/>
    </input>

    <output>
        <tripinfo-output value="tripinfo.xml"/>
        <statistic-output value="statistics.xml"/>
    </output>

    <report>
        <no-step-log value="true"/>
    </report>

    <traci_server>
        <remote-port value="57258"/>
    </traci_server>

</configuration>
-->

<tripinfos xmlns:xsi="http://www.w3.org/2001/XMLSchema-instance" xsi:noNamespaceSchemaLocation="http://sumo.dlr.de/xsd/tripinfo_file.xsd">
    <tripinfo id="2.0" depart="3.00" departLane="N2A2_0" departPos="5.10" departSpeed="0.00" departDelay="0.00" arrival="144.00" arrivalLane="B2S2_0" arrivalPos="492.80" arrivalSpeed="12.56" duration="141.00" routeLength="1494.90" waitingTime="13.00" waitingCount="1" stopTime="0.00" timeLoss="25.78" rerouteNo="0" devices="tripinfo_2.0" vType="DEFAULT_VEHTYPE" speedFactor="0.94" vaporized=""/>
    <tripinfo id="2.1" depart="9.00" departLane="N2A2_0" departPos="5.10" departSpeed="0.00" departDelay="0.00" arrival="146.00" arrivalLane="B2S2_0" arrivalPos="492.80" arrivalSpeed="13.58" duration="137.00" routeLength="1494.90" waitingTime="12.00" waitingCount="1" stopTime="0.00" timeLoss="31.71" rerouteNo="0" devices="tripinfo_2.1" vType="DEFAULT_VEHTYPE" speedFactor="1.03" vaporized=""/>
    <tripinfo id="2.2" depart="21.00" departLane="N2A2_0" departPos="5.10" departSpeed="0.00" departDelay="0.00" arrival="147.00" arrivalLane="B2S2_0" arrivalPos="492.80" arrivalSpeed="14.75" duration="126.00" routeLength="1494.90" waitingTime="6.00" waitingCount="1" stopTime="0.00" timeLoss="27.12" rerouteNo="0" devices="tripinfo_2.2" vType="DEFAULT_VEHTYPE" speedFactor="1.09" vaporized=""/>
    <tripinfo id="2.3" depart="40.00" departLane="N2A2_0" departPos="5.10" departSpeed="0.00" departDelay="0.00" arrival="154.00" arrivalLane="B2S2_0" arrivalPos="492.80" arrivalSpeed="13.56" duration="114.00" routeLength="1494.90" waitingTime="0.00" waitingCount="0" stopTime="0.00" timeLoss="7.84" rerouteNo="0" devices="tripinfo_2.3" vType="DEFAULT_VEHTYPE" speedFactor="1.02" vaporized=""/>
    <tripinfo id="5.0" depart="2.00" departLane="W2B1_0" departPos="5.10" departSpeed="0.00" departDelay="0.00" arrival="165.00" arrivalLane="B3E2_0" arrivalPos="496.00" arrivalSpeed="13.43" duration="163.00" routeLength="1994.90" waitingTime="8.00" waitingCount="1" stopTime="0.00" timeLoss="26.83" rerouteNo="0" devices="tripinfo_5.0" vType="DEFAULT_VEHTYPE" speedFactor="1.06" vaporized=""/>
    <tripinfo id="1.0" depart="11.00" departLane="N1A1_0" departPos="5.10" departSpeed="0.00" departDelay="1.00" arrival="168.00" arrivalLane="B1S1_0" arrivalPos="492.80" arrivalSpeed="11.04" duration="157.00" routeLength="1494.90" waitingTime="13.00" waitingCount="1" stopTime="0.00" timeLoss="26.58" rerouteNo="0" devices="tripinfo_1.0" vType="DEFAULT_VEHTYPE" speedFactor="0.83" vaporized=""/>
    <tripinfo id="2.4" depart="44.00" departLane="N2A2_0" departPos="5.10" departSpeed="0.00" departDelay="0.00" arrival="189.00" arrivalLane="B2S2_0" arrivalPos="492.80" arrivalSpeed="13.34" duration="145.00" routeLength="1494.90" waitingTime="20.00" waitingCount="1" stopTime="0.00" timeLoss="33.87" rerouteNo="0" devices="tripinfo_2.4" vType="DEFAULT_VEHTYPE" speedFactor="0.98" vaporized=""/>
    <tripinfo id="4.0" depart="3.00" departLane="W1A1_0" departPos="5.10" departSpeed="0.00" departDelay="0.00" arrival="190.00" arrivalLane="A3E1_0" arrivalPos="496.00" arrivalSpeed="13.67" duration="187.00" routeLength="1994.90" waitingTime="19.00" waitingCount="3" stopTime="0.00" timeLoss="44.00" rerouteNo="0" devices="tripinfo_4.0" vType="DEFAULT_VEHTYPE" speedFactor="1.01" vaporized=""/>
    <tripinfo id="2.5" depart="47.00" departLane="N2A2_0" departPos="5.10" departSpeed="0.00" departDelay="2.00" arrival="194.00" arrivalLane="B2S2_0" arrivalPos="492.80" arrivalSpeed="11.11" duration="147.00" routeLength="1494.90" waitingTime="10.00" waitingCount="1" stopTime="0.00" timeLoss="25.38" rerouteNo="0" devices="tripinfo_2.5" vType="DEFAULT_VEHTYPE" speedFactor="0.89" vaporized=""/>
    <tripinfo id="2.6" depart="74.00" departLane="N2A2_0" departPos="5.10" departSpeed="0.00" departDelay="0.00" arrival="196.00" arrivalLane="B2S2_0" arrivalPos="492.80" arrivalSpeed="13.75" duration="122.00" routeLength="1494.90" waitingTime="10.00" waitingCount="1" stopTime="0.00" timeLoss="29.32" rerouteNo="0" devices="tripinfo_2.6" vType="DEFAULT_VEHTYPE" speedFactor="1.17" vaporized=""/>
    <tripinfo id="3.0" depart="46.00" departLane="N3A3_0" departPos="5.10" departSpeed="0.00" departDelay="0.00" arrival="197.00" arrivalLane="B3S3_0" arrivalPos="492.80" arrivalSpeed="11.15" duration="151.00" routeLength="1494.90" waitingTime="6.00" waitingCount="1" stopTime="0.00" timeLoss="20.43" rerouteNo="0" devices="tripinfo_3.0" vType="DEFAULT_VEHTYPE" speedFactor="0.83" vaporized=""/>
    <tripinfo id="3.1" depart="73.00" departLane="N3A3_0" departPos="5.10" departSpeed="0.00" departDelay="0.00" arrival="199.00" arrivalLane="B3S3_0" arrivalPos="492.80" arrivalSpeed="13.51" duration="126.00" routeLength="1494.90" waitingTime="0.00" waitingCount="0" stopTime="0.00" timeLoss="18.25" rerouteNo="0" devices="tripinfo_3.1" vType="DEFAULT_VEHTYPE" speedFactor="1.01" vaporized=""/>
    <tripinfo id="3.2" depart="81.00" departLane="N3A3_0" departPos="5.10" departSpeed="0.00" departDelay="0.00" arrival="200.00" arrivalLane="B3S3_0" arrivalPos="492.80" arrivalSpeed="15.64" duration="119.00" routeLength="1494.90" waitingTime="0.00" waitingCount="0" stopTime="0.00" timeLoss="27.67" rerouteNo="0" devices="tripinfo_3.2" vType="DEFAULT_VEHTYPE" speedFactor="1.18" vaporized=""/>
    <tripinfo id="1.1" depart="30.00" departLane="N1A1_0" departPos="5.10" departSpeed="0.00" departDelay="0.00" arrival="202.00" arrivalLane="B1S1_0" arrivalPos="492.80" arrivalSpeed="12.95" duration="172.00" routeLength="1494.90" waitingTime="28.00" waitingCount="2" stopTime="0.00" timeLoss="62.81" rerouteNo="0" devices="tripinfo_1.1" vType="DEFAULT_VEHTYPE" speedFactor="0.99" vaporized=""/>
    <tripinfo id="2.7" depart="80.00" departLane="N2A2_0" departPos="5.10" departSpeed="0.00" departDelay="0.00" arrival="206.00" arrivalLane="B2S2_0" arrivalPos="492.80" arrivalSpeed="12.87" duration="126.00" routeLength="1494.90" waitingTime="0.00" waitingCount="0" stopTime="0.00" timeLoss="14.98" rerouteNo="0" devices="tripinfo_2.7" vType="DEFAULT_VEHTYPE" speedFactor="0.97" vaporized=""/>
    <tripinfo id="3.3" depart="94.00" departLane="N3A3_0" departPos="5.10" departSpeed="0.00" departDelay="0.00" arrival="207.00" arrivalLane="B3S3_0" arrivalPos="492.80" arrivalSpeed="14.12" duration="113.00" routeLength="1494.90" waitingTime="0.00" waitingCount="0" stopTime="0.00" timeLoss="8.05" rerouteNo="0" devices="tripinfo_3.3" vType="DEFAULT_VEHTYPE" speedFactor="1.03" vaporized=""/>
    <tripinfo id="1.2" depart="39.00" departLane="N1A1_0" departPos="5.10" departSpeed="0.00" departDelay="4.00" arrival="212.00" arrivalLane="B1S1_0" arrivalPos="492.80" arrivalSpeed="13.04" duration="173.00" routeLength="1494.90" waitingTime="21.00" waitingCount="3" stopTime="0.00" timeLoss="58.30" rerouteNo="0" devices="tripinfo_1.2" vType="DEFAULT_VEHTYPE" speedFactor="0.94" vaporized=""/>
    <tripinfo id="3.4" depart="97.00" departLane="N3A3_0" departPos="5.10" departSpeed="0.00" departDelay="2.00" arrival="219.00" arrivalLane="B3S3_0" arrivalPos="492.80" arrivalSpeed="13.11" duration="122.00" routeLength="1494.90" waitingTime="0.00" waitingCount="0" stopTime="0.00" timeLoss="8.68" rerouteNo="0" devices="tripinfo_3.4" vType="DEFAULT_VEHTYPE" speedFactor="0.96" vaporized=""/>
    <tripinfo id="5.1" depart="20.00" departLane="W2B1_0" departPos="5.10" departSpeed="0.00" departDelay="0.00" arrival="230.00" arrivalLane="B3E2_0" arrivalPos="496.00" arrivalSpeed="11.39" duration="210.00" routeLength="1994.90" waitingTime="21.00" waitingCount="2" stopTime="0.00" timeLoss="41.97" rerouteNo="0" devices="tripinfo_5.1" vType="DEFAULT_VEHTYPE" speedFactor="0.86" vaporized=""/>
    <tripinfo id="5.2" depart="29.00" departLane="W2B1_0" departPos="5.10" departSpeed="0.00" departDelay="0.00" arrival="232.00" arrivalLane="B3E2_0" arrivalPos="496.00" arrivalSpeed="14.89" duration="203.00" routeLength="1994.90" waitingTime="18.00" waitingCount="2" stopTime="0.00" timeLoss="74.23" rerouteNo="0" devices="tripinfo_5.2" vType="DEFAULT_VEHTYPE" speedFactor="1.12" vaporized=""/>
    <tripinfo id="5.3" depart="36.00" departLane="W2B1_0" departPos="5.10" departSpeed="0.00" departDelay="0.00" arrival="233.00" arrivalLane="B3E2_0" arrivalPos="496.00" arrivalSpeed="15.45" duration="197.00" routeLength="1994.90" waitingTime="19.00" waitingCount="2" stopTime="0.00" timeLoss="72.76" rerouteNo="0" devices="tripinfo_5.3" vType="DEFAULT_VEHTYPE" speedFactor="1.16" vaporized=""/>
    <tripinfo id="6.0" depart="8.00" departLane="N1A1_0" departPos="5.10" departSpeed="0.00" departDelay="0.00" arrival="235.00" arrivalLane="B3E2_0" arrivalPos="496.00" arrivalSpeed="14.64" duration="227.00" routeLength="2495.93" waitingTime="10.00" waitingCount="3" stopTime="0.00" timeLoss="60.23" rerouteNo="0" devices="tripinfo_6.0" vType="DEFAULT_VEHTYPE" speedFactor="1.08" vaporized=""/>
    <tripinfo id="2.8" depart="103.00" departLane="N2A2_0" departPos="5.10" departSpeed="0.00" departDelay="0.00" arrival="238.00" arrivalLane="B2S2_0" arrivalPos="492.80" arrivalSpeed="13.68" duration="135.00" routeLength="1494.90" waitingTime="16.00" waitingCount="1" stopTime="0.00" timeLoss="30.62" rerouteNo="0" devices="tripinfo_2.8" vType="DEFAULT_VEHTYPE" speedFactor="1.04" vaporized=""/>
    <tripinfo id="2.9" depart="111.00" departLane="N2A2_0" departPos="5.10" departSpeed="0.00" departDelay="0.00" arrival="241.00" arrivalLane="B2S2_0" arrivalPos="492.80" arrivalSpeed="13.53" duration="130.00" routeLength="1494.90" waitingTime="6.00" waitingCount="1" stopTime="0.00" timeLoss="21.71" rerouteNo="0" devices="tripinfo_2.9" vType="DEFAULT_VEHTYPE" speedFactor="1.00" vaporized=""/>
    <tripinfo id="6.1" depart="14.00" departLane="N1A1_0" departPos="5.10" departSpeed="0.00" departDelay="4.00" arrival="245.00" arrivalLane="B3E2_0" arrivalPos="496.00" arrivalSpeed="14.43" duration="231.00" routeLength="2495.93" waitingTime="15.00" waitingCount="2" stopTime="0.00" timeLoss="58.55" rerouteNo="0" devices="tripinfo_6.1" vType="DEFAULT_VEHTYPE" speedFactor="1.05" vaporized=""/>
    <tripinfo id="5.4" depart="63.00" departLane="W2B1_0" departPos="5.10" departSpeed="0.00" departDelay="0.00" arrival="247.00" arrivalLane="B3E2_0" arrivalPos="496.00" arrivalSpeed="15.10" duration="184.00" routeLength="1994.90" waitingTime="28.00" waitingCount="2" stopTime="0.00" timeLoss="56.52" rerouteNo="0" devices="tripinfo_5.4" vType="DEFAULT_VEHTYPE" speedFactor="1.13" vaporized=""/>
    <tripinfo id="1.3" depart="63.00" departLane="N1A1_0" departPos="5.10" departSpeed="0.00" departDelay="0.00" arrival="251.00" arrivalLane="B1S1_0" arrivalPos="492.80" arrivalSpeed="12.90" duration="188.00" routeLength="1494.90" waitingTime="39.00" waitingCount="2" stopTime="0.00" timeLoss="74.31" rerouteNo="0" devices="tripinfo_1.3" vType="DEFAULT_VEHTYPE" speedFactor="0.95" vaporized=""/>
    <tripinfo id="3.5" depart="110.00" departLane="N3A3_0" departPos="5.10" departSpeed="0.00" departDelay="0.00" arrival="261.00" arrivalLane="B3S3_0" arrivalPos="492.80" arrivalSpeed="14.83" duration="151.00" routeLength="1494.90" waitingTime="33.00" waitingCount="1" stopTime="0.00" timeLoss="51.60" rerouteNo="0" devices="tripinfo_3.5" vType="DEFAULT_VEHTYPE" speedFactor="1.09" vaporized=""/>
    <tripinfo id="3.6" depart="168.00" departLane="N3A3_0" departPos="5.10" departSpeed="0.00" departDelay="0.00" arrival="292.00" arrivalLane="B3S3_0" arrivalPos="492.80" arrivalSpeed="12.61" duration="124.00" routeLength="1494.90" waitingTime="0.00" waitingCount="0" stopTime="0.00" timeLoss="8.95" rerouteNo="0" devices="tripinfo_3.6" vType="DEFAULT_VEHTYPE" speedFactor="0.94" vaporized=""/>
    <tripinfo id="2.10" depart="161.00" departLane="N2A2_0" departPos="5.10" departSpeed="0.00" departDelay="0.00" arrival="293.00" arrivalLane="B2S2_0" arrivalPos="492.80" arrivalSpeed="13.77" duration="132.00" routeLength="1494.90" waitingTime="11.00" waitingCount="1" stopTime="0.00" timeLoss="25.91" rerouteNo="0" devices="tripinfo_2.10" vType="DEFAULT_VEHTYPE" speedFactor="1.02" vaporized=""/>
    <tripinfo id="1.4" depart="92.00" departLane="N1A1_0" departPos="5.10" departSpeed="0.00" departDelay="0.00" arrival="296.00" arrivalLane="B1S1_0" arrivalPos="492.80" arrivalSpeed="12.28" duration="204.00" routeLength="1494.90" waitingTime="42.00" waitingCount="3" stopTime="0.00" timeLoss="83.66" rerouteNo="0" devices="tripinfo_1.4" vType="DEFAULT_VEHTYPE" speedFactor="0.90" vaporized=""/>
    <tripinfo id="2.11" depart="169.00" departLane="N2A2_0" departPos="5.10" departSpeed="0.00" departDelay="0.00" arrival="297.00" arrivalLane="B2S2_0" arrivalPos="492.80" arrivalSpeed="12.23" duration="128.00" routeLength="1494.90" waitingTime="0.00" waitingCount="0" stopTime="0.00" timeLoss="14.85" rerouteNo="0" devices="tripinfo_2.11" vType="DEFAULT_VEHTYPE" speedFactor="0.96" vaporized=""/>
    <tripinfo id="6.2" depart="17.00" departLane="N1A1_0" departPos="5.10" departSpeed="0.00" departDelay="5.00" arrival="310.00" arrivalLane="B3E2_0" arrivalPos="496.00" arrivalSpeed="12.21" duration="293.00" routeLength="2495.93" waitingTime="55.00" waitingCount="3" stopTime="0.00" timeLoss="89.18" rerouteNo="0" devices="tripinfo_6.2" vType="DEFAULT_VEHTYPE" speedFactor="0.89" vaporized=""/>
    <tripinfo id="6.3" depart="20.00" departLane="N1A1_0" departPos="5.10" departSpeed="0.00" departDelay="7.00" arrival="312.00" arrivalLane="B3E2_0" arrivalPos="496.00" arrivalSpeed="12.15" duration="292.00" routeLength="2495.93" waitingTime="51.00" waitingCount="3" stopTime="0.00" timeLoss="98.81" rerouteNo="0" devices="tripinfo_6.3" vType="DEFAULT_VEHTYPE" speedFactor="0.94" vaporized=""/>
    <tripinfo id="6.4" depart="24.00" departLane="N1A1_0" departPos="5.10" departSpeed="0.00" departDelay="3.00" arrival="313.00" arrivalLane="B3E2_0" arrivalPos="496.00" arrivalSpeed="13.69" duration="289.00" routeLength="2495.93" waitingTime="51.00" waitingCount="3" stopTime="0.00" timeLoss="113.47" rerouteNo="0" devices="tripinfo_6.4" vType="DEFAULT_VEHTYPE" speedFactor="1.03" vaporized=""/>
    <tripinfo id="6.5" depart="27.00" departLane="N1A1_0" departPos="5.10" departSpeed="0.00" departDelay="0.00" arrival="315.00" arrivalLane="B3E2_0" arrivalPos="496.00" arrivalSpeed="14.35" duration="288.00" routeLength="2495.93" waitingTime="48.00" waitingCount="3" stopTime="0.00" timeLoss="115.11" rerouteNo="0" devices="tripinfo_6.5" vType="DEFAULT_VEHTYPE" speedFactor="1.05" vaporized=""/>
    <tripinfo id="6.6" depart="33.00" departLane="N1A1_0" departPos="5.10" departSpeed="0.00" departDelay="0.00" arrival="317.00" arrivalLane="B3E2_0" arrivalPos="496.00" arrivalSpeed="12.44" duration="284.00" routeLength="2495.93" waitingTime="42.00" waitingCount="3" stopTime="0.00" timeLoss="88.83" rerouteNo="0" devices="tripinfo_6.6" vType="DEFAULT_VEHTYPE" speedFactor="0.93" vaporized=""/>
    <tripinfo id="4.1" depart="137.00" departLane="W1A1_0" departPos="5.10" departSpeed="0.00" departDelay="0.00" arrival="318.00" arrivalLane="A3E1_0" arrivalPos="496.00" arrivalSpeed="14.34" duration="181.00" routeLength="1994.90" waitingTime="21.00" waitingCount="3" stopTime="0.00" timeLoss="48.26" rerouteNo="0" devices="tripinfo_4.1" vType="DEFAULT_VEHTYPE" speedFactor="1.08" vaporized=""/>
    <tripinfo id="6.7" depart="36.00" departLane="N1A1_0" departPos="5.10" departSpeed="0.00" departDelay="2.00" arrival="320.00" arrivalLane="B3E2_0" arrivalPos="496.00" arrivalSpeed="11.81" duration="284.00" routeLength="2495.93" waitingTime="36.00" waitingCount="3" stopTime="0.00" timeLoss="78.50" rerouteNo="0" devices="tripinfo_6.7" vType="DEFAULT_VEHTYPE" speedFactor="0.88" vaporized=""/>
    <tripinfo id="3.7" depart="193.00" departLane="N3A3_0" departPos="5.10" departSpeed="0.00" departDelay="0.00" arrival="320.00" arrivalLane="B3S3_0" arrivalPos="492.80" arrivalSpeed="13.29" duration="127.00" routeLength="1494.90" waitingTime="5.00" waitingCount="1" stopTime="0.00" timeLoss="18.96" rerouteNo="0" devices="tripinfo_3.7" vType="DEFAULT_VEHTYPE" speedFactor="1.00" vaporized=""/>
    <tripinfo id="3.8" depart="196.00" departLane="N3A3_0" departPos="5.10" departSpeed="0.00" departDelay="0.00" arrival="323.00" arrivalLane="B3S3_0" arrivalPos="492.80" arrivalSpeed="12.39" duration="127.00" routeLength="1494.90" waitingTime="1.00" waitingCount="1" stopTime="0.00" timeLoss="15.56" rerouteNo="0" devices="tripinfo_3.8" vType="DEFAULT_VEHTYPE" speedFactor="0.97" vaporized=""/>
    <tripinfo id="2.12" depart="205.00" departLane="N2A2_0" departPos="5.10" departSpeed="0.00" departDelay="0.00" arrival="342.00" arrivalLane="B2S2_0" arrivalPos="492.80" arrivalSpeed="13.89" duration="137.00" routeLength="1494.90" waitingTime="11.00" waitingCount="2" stopTime="0.00" timeLoss="31.04" rerouteNo="0" devices="tripinfo_2.12" vType="DEFAULT_VEHTYPE" speedFactor="1.02" vaporized=""/>
    <tripinfo id="5.5" depart="121.00" departLane="W2B1_0" departPos="5.10" departSpeed="0.00" departDelay="0.00" arrival="344.00" arrivalLane="B3E2_0" arrivalPos="496.00" arrivalSpeed="12.87" duration="223.00" routeLength="1994.90" waitingTime="43.00" waitingCount="3" stopTime="0.00" timeLoss="80.85" rerouteNo="0" devices="tripinfo_5.5" vType="DEFAULT_VEHTYPE" speedFactor="1.02" vaporized=""/>
    <tripinfo id="2.13" depart="219.00" departLane="N2A2_0" departPos="5.10" departSpeed="0.00" departDelay="0.00" arrival="345.00" arrivalLane="B2S2_0" arrivalPos="492.80" arrivalSpeed="13.44" duration="126.00" routeLength="1494.90" waitingTime="1.00" waitingCount="1" stopTime="0.00" timeLoss="18.51" rerouteNo="0" devices="tripinfo_2.13" vType="DEFAULT_VEHTYPE" speedFactor="1.01" vaporized=""/>
    <tripinfo id="2.14" depart="222.00" departLane="N2A2_0" departPos="5.10" departSpeed="0.00" departDelay="1.00" arrival="346.00" arrivalLane="B2S2_0" arrivalPos="492.80" arrivalSpeed="14.47" duration="124.00" routeLength="1494.90" waitingTime="0.00" waitingCount="0" stopTime="0.00" timeLoss="27.83" rerouteNo="0" devices="tripinfo_2.14" vType="DEFAULT_VEHTYPE" speedFactor="1.12" vaporized=""/>
    <tripinfo id="5.6" depart="130.00" departLane="W2B1_0" departPos="5.10" departSpeed="0.00" departDelay="0.00" arrival="350.00" arrivalLane="B3E2_0" arrivalPos="496.00" arrivalSpeed="11.94" duration="220.00" routeLength="1994.90" waitingTime="30.00" waitingCount="2" stopTime="0.00" timeLoss="59.87" rerouteNo="0" devices="tripinfo_5.6" vType="DEFAULT_VEHTYPE" speedFactor="0.90" vaporized=""/>
    <tripinfo id="5.7" depart="151.00" departLane="W2B1_0" departPos="5.10" departSpeed="0.00" departDelay="0.00" arrival="353.00" arrivalLane="B3E2_0" arrivalPos="496.00" arrivalSpeed="11.99" duration="202.00" routeLength="1994.90" waitingTime="21.00" waitingCount="1" stopTime="0.00" timeLoss="38.76" rerouteNo="0" devices="tripinfo_5.7" vType="DEFAULT_VEHTYPE" speedFactor="0.88" vaporized=""/>
    <tripinfo id="6.8" depart="42.00" departLane="N1A1_0" departPos="5.10" departSpeed="0.00" departDelay="7.00" arrival="355.00" arrivalLane="B3E2_0" arrivalPos="496.00" arrivalSpeed="12.07" duration="313.00" routeLength="2495.93" waitingTime="65.00" waitingCount="4" stopTime="0.00" timeLoss="119.94" rerouteNo="0" devices="tripinfo_6.8" vType="DEFAULT_VEHTYPE" speedFactor="0.94" vaporized=""/>
    <tripinfo id="6.9" depart="45.00" departLane="N1A1_0" departPos="5.10" departSpeed="0.00" departDelay="5.00" arrival="357.00" arrivalLane="B3E2_0" arrivalPos="496.00" arrivalSpeed="12.99" duration="312.00" routeLength="2495.93" waitingTime="62.00" waitingCount="4" stopTime="0.00" timeLoss="132.25" rerouteNo="0" devices="tripinfo_6.9" vType="DEFAULT_VEHTYPE" speedFactor="1.01" vaporized=""/>
    <tripinfo id="1.5" depart="152.00" departLane="N1A1_0" departPos="5.10" departSpeed="0.00" departDelay="9.00" arrival="364.00" arrivalLane="B1S1_0" arrivalPos="492.80" arrivalSpeed="12.70" duration="212.00" routeLength="1494.90" waitingTime="54.00" waitingCount="3" stopTime="0.00" timeLoss="102.56" rerouteNo="0" devices="tripinfo_1.5" vType="DEFAULT_VEHTYPE" speedFactor="0.99" vaporized=""/>
    <tripinfo id="6.10" depart="54.00" departLane="N1A1_0" departPos="5.10" departSpeed="0.00" departDelay="0.00" arrival="366.00" arrivalLane="B3E2_0" arrivalPos="496.00" arrivalSpeed="11.27" duration="312.00" routeLength="2495.93" waitingTime="63.00" waitingCount="3" stopTime="0.00" timeLoss="105.03" rerouteNo="0" devices="tripinfo_6.10" vType="DEFAULT_VEHTYPE" speedFactor="0.87" vaporized=""/>
    <tripinfo id="6.11" depart="59.00" departLane="N1A1_0" departPos="5.10" departSpeed="0.00" departDelay="0.00" arrival="368.00" arrivalLane="B3E2_0" arrivalPos="496.00" arrivalSpeed="12.28" duration="309.00" routeLength="2495.93" waitingTime="58.00" waitingCount="3" stopTime="0.00" timeLoss="111.29" rerouteNo="0" devices="tripinfo_6.11" vType="DEFAULT_VEHTYPE" speedFactor="0.92" vaporized=""/>
    <tripinfo id="6.12" depart="66.00" departLane="N1A1_0" departPos="5.10" departSpeed="0.00" departDelay="1.00" arrival="369.00" arrivalLane="B3E2_0" arrivalPos="496.00" arrivalSpeed="11.99" duration="303.00" routeLength="2495.93" waitingTime="57.00" waitingCount="3" stopTime="0.00" timeLoss="109.42" rerouteNo="0" devices="tripinfo_6.12" vType="DEFAULT_VEHTYPE" speedFactor="0.93" vaporized=""/>
    <tripinfo id="6.13" depart="69.00" departLane="N1A1_0" departPos="5.10" departSpeed="0.00" departDelay="0.00" arrival="371.00" arrivalLane="B3E2_0" arrivalPos="496.00" arrivalSpeed="15.97" duration="302.00" routeLength="2495.93" waitingTime="57.00" waitingCount="3" stopTime="0.00" timeLoss="148.05" rerouteNo="0" devices="tripinfo_6.13" vType="DEFAULT_VEHTYPE" speedFactor="1.18" vaporized=""/>
    <tripinfo id="6.14" depart="72.00" departLane="N1A1_0" departPos="5.10" departSpeed="0.00" departDelay="0.00" arrival="373.00" arrivalLane="B3E2_0" arrivalPos="496.00" arrivalSpeed="15.63" duration="301.00" routeLength="2495.93" waitingTime="56.00" waitingCount="3" stopTime="0.00" timeLoss="143.98" rerouteNo="0" devices="tripinfo_6.14" vType="DEFAULT_VEHTYPE" speedFactor="1.15" vaporized=""/>
    <tripinfo id="6.15" depart="75.00" departLane="N1A1_0" departPos="5.10" departSpeed="0.00" departDelay="1.00" arrival="375.00" arrivalLane="B3E2_0" arrivalPos="496.00" arrivalSpeed="13.47" duration="300.00" routeLength="2495.93" waitingTime="54.00" waitingCount="3" stopTime="0.00" timeLoss="117.50" rerouteNo="0" devices="tripinfo_6.15" vType="DEFAULT_VEHTYPE" speedFactor="0.99" vaporized=""/>
    <tripinfo id="5.8" depart="177.00" departLane="W2B1_0" departPos="5.10" departSpeed="0.00" departDelay="0.00" arrival="376.00" arrivalLane="B3E2_0" arrivalPos="496.00" arrivalSpeed="14.20" duration="199.00" routeLength="1994.90" waitingTime="24.00" waitingCount="2" stopTime="0.00" timeLoss="59.64" rerouteNo="0" devices="tripinfo_5.8" vType="DEFAULT_VEHTYPE" speedFactor="1.03" vaporized=""/>
    <tripinfo id="5.9" depart="180.00" departLane="W2B1_0" departPos="5.10" departSpeed="0.00" departDelay="2.00" arrival="378.00" arrivalLane="B3E2_0" arrivalPos="496.00" arrivalSpeed="13.13" duration="198.00" routeLength="1994.90" waitingTime="18.00" waitingCount="2" stopTime="0.00" timeLoss="51.41" rerouteNo="0" devices="tripinfo_5.9" vType="DEFAULT_VEHTYPE" speedFactor="0.98" vaporized=""/>
    <tripinfo id="4.2" depart="198.00" departLane="W1A1_0" departPos="5.10" departSpeed="0.00" departDelay="0.00" arrival="379.00" arrivalLane="A3E1_0" arrivalPos="496.00" arrivalSpeed="13.01" duration="181.00" routeLength="1994.90" waitingTime="8.00" waitingCount="3" stopTime="0.00" timeLoss="32.91" rerouteNo="0" devices="tripinfo_4.2" vType="DEFAULT_VEHTYPE" speedFactor="0.98" vaporized=""/>
    <tripinfo id="6.16" depart="79.00" departLane="N1A1_0" departPos="5.10" departSpeed="0.00" departDelay="0.00" arrival="380.00" arrivalLane="B3E2_0" arrivalPos="496.00" arrivalSpeed="12.87" duration="301.00" routeLength="2495.93" waitingTime="56.00" waitingCount="3" stopTime="0.00" timeLoss="123.70" rerouteNo="0" devices="tripinfo_6.16" vType="DEFAULT_VEHTYPE" speedFactor="1.02" vaporized=""/>
    <tripinfo id="6.17" depart="87.00" departLane="N1A1_0" departPos="5.10" departSpeed="0.00" departDelay="0.00" arrival="382.00" arrivalLane="B3E2_0" arrivalPos="496.00" arrivalSpeed="15.09" duration="295.00" routeLength="2495.93" waitingTime="56.00" waitingCount="3" stopTime="0.00" timeLoss="130.67" rerouteNo="0" devices="tripinfo_6.17" vType="DEFAULT_VEHTYPE" speedFactor="1.10" vaporized=""/>
    <tripinfo id="6.18" depart="100.00" departLane="N1A1_0" departPos="5.10" departSpeed="0.00" departDelay="0.00" arrival="383.00" arrivalLane="B3E2_0" arrivalPos="496.00" arrivalSpeed="14.61" duration="283.00" routeLength="2495.93" waitingTime="39.00" waitingCount="2" stopTime="0.00" timeLoss="117.74" rerouteNo="0" devices="tripinfo_6.18" vType="DEFAULT_VEHTYPE" speedFactor="1.09" vaporized=""/>
    <tripinfo id="3.9" depart="272.00" departLane="N3A3_0" departPos="5.10" departSpeed="0.00" departDelay="0.00" arrival="384.00" arrivalLane="B3S3_0" arrivalPos="492.80" arrivalSpeed="15.99" duration="112.00" routeLength="1494.90" waitingTime="3.00" waitingCount="1" stopTime="0.00" timeLoss="17.95" rerouteNo="0" devices="tripinfo_3.9" vType="DEFAULT_VEHTYPE" speedFactor="1.15" vaporized=""/>
    <tripinfo id="6.19" depart="108.00" departLane="N1A1_0" departPos="5.10" departSpeed="0.00" departDelay="0.00" arrival="385.00" arrivalLane="B3E2_0" arrivalPos="496.00" arrivalSpeed="13.46" duration="277.00" routeLength="2495.93" waitingTime="37.00" waitingCount="2" stopTime="0.00" timeLoss="103.52" rerouteNo="0" devices="tripinfo_6.19" vType="DEFAULT_VEHTYPE" speedFactor="1.04" vaporized=""/>
    <tripinfo id="4.3" depart="226.00" departLane="W1A1_0" departPos="5.10" departSpeed="0.00" departDelay="0.00" arrival="387.00" arrivalLane="A3E1_0" arrivalPos="496.00" arrivalSpeed="13.03" duration="161.00" routeLength="1994.90" waitingTime="0.00" waitingCount="0" stopTime="0.00" timeLoss="10.12" rerouteNo="0" devices="tripinfo_4.3" vType="DEFAULT_VEHTYPE" speedFactor="0.96" vaporized=""/>
    <tripinfo id="2.15" depart="272.00" departLane="N2A2_0" departPos="5.10" departSpeed="0.00" departDelay="0.00" arrival="393.00" arrivalLane="B2S2_0" arrivalPos="492.80" arrivalSpeed="13.93" duration="121.00" routeLength="1494.90" waitingTime="4.00" waitingCount="1" stopTime="0.00" timeLoss="19.09" rerouteNo="0" devices="tripinfo_2.15" vType="DEFAULT_VEHTYPE" speedFactor="1.06" vaporized=""/>
    <tripinfo id="2.16" depart="281.00" departLane="N2A2_0" departPos="5.10" departSpeed="0.00" departDelay="0.00" arrival="395.00" arrivalLane="B2S2_0" arrivalPos="492.80" arrivalSpeed="14.38" duration="114.00" routeLength="1494.90" waitingTime="0.00" waitingCount="0" stopTime="0.00" timeLoss="17.03" rerouteNo="0" devices="tripinfo_2.16" vType="DEFAULT_VEHTYPE" speedFactor="1.12" vaporized=""/>
    <tripinfo id="1.6" depart="158.00" departLane="N1A1_0" departPos="5.10" departSpeed="0.00" departDelay="5.00" arrival="399.00" arrivalLane="B1S1_0" arrivalPos="492.80" arrivalSpeed="11.35" duration="241.00" routeLength="1494.90" waitingTime="73.00" waitingCount="4" stopTime="0.00" timeLoss="122.20" rerouteNo="0" devices="tripinfo_1.6" vType="DEFAULT_VEHTYPE" speedFactor="0.91" vaporized=""/>
    <tripinfo id="1.7" depart="161.00" departLane="N1A1_0" departPos="5.10" departSpeed="0.00" departDelay="5.00" arrival="402.00" arrivalLane="B1S1_0" arrivalPos="492.80" arrivalSpeed="11.57" duration="241.00" routeLength="1494.90" waitingTime="69.00" waitingCount="4" stopTime="0.00" timeLoss="122.44" rerouteNo="0" devices="tripinfo_1.7" vType="DEFAULT_VEHTYPE" speedFactor="0.91" vaporized=""/>
    <tripinfo id="3.10" depart="294.00" departLane="N3A3_0" departPos="5.10" departSpeed="0.00" departDelay="0.00" arrival="406.00" arrivalLane="B3S3_0" arrivalPos="492.80" arrivalSpeed="14.01" duration="112.00" routeLength="1494.90" waitingTime="0.00" waitingCount="0" stopTime="0.00" timeLoss="7.58" rerouteNo="0" devices="tripinfo_3.10" vType="DEFAULT_VEHTYPE" speedFactor="1.04" vaporized=""/>
    <tripinfo id="6.20" depart="113.00" departLane="N1A1_0" departPos="5.10" departSpeed="0.00" departDelay="0.00" arrival="419.00" arrivalLane="B3E2_0" arrivalPos="496.00" arrivalSpeed="12.02" duration="306.00" routeLength="2495.93" waitingTime="56.00" waitingCount="4" stopTime="0.00" timeLoss="104.93" rerouteNo="0" devices="tripinfo_6.20" vType="DEFAULT_VEHTYPE" speedFactor="0.90" vaporized=""/>
    <tripinfo id="6.21" depart="116.00" departLane="N1A1_0" departPos="5.10" departSpeed="0.00" departDelay="2.00" arrival="422.00" arrivalLane="B3E2_0" arrivalPos="496.00" arrivalSpeed="12.09" duration="306.00" routeLength="2495.93" waitingTime="49.00" waitingCount="3" stopTime="0.00" timeLoss="99.91" rerouteNo="0" devices="tripinfo_6.21" vType="DEFAULT_VEHTYPE" speedFactor="0.88" vaporized=""/>