<?xml version="1.0" encoding="UTF-8"?>

<!-- generated on 2021-12-21 20:01:26 by Eclipse SUMO sumo Version 1.10.0
<configuration xmlns:xsi="http://www.w3.org/2001/XMLSchema-instance" xsi:noNamespaceSchemaLocation="http://sumo.dlr.de/xsd/sumoConfiguration.xsd">

    <input>
        <net-file value="C:\Users\Marcus\Desktop\Hauptordner\Studium\Masterstudium\3.%20Semester\Projekt_Sim-Opt\Traffic_Simulation\2X3GridNetwork\2x3net.net.xml"/>
        <route-files value="C:\Users\Marcus\Desktop\Hauptordner\Studium\Masterstudium\3.%20Semester\Projekt_Sim-Opt\Traffic_Simulation\2X3GridNetwork\2x3Routes.xml"/>
        <additional-files value="C:\Users\Marcus\Desktop\Hauptordner\Studium\Masterstudium\3.%20Semester\Projekt_Sim-Opt\Traffic_Simulation\2X3GridNetwork\additionals.xml"/>
    </input>

    <output>
        <tripinfo-output value="tripinfo.xml"/>
        <statistic-output value="statistics.xml"/>
    </output>

    <report>
        <no-step-log value="true"/>
    </report>

    <traci_server>
        <remote-port value="56884"/>
    </traci_server>

</configuration>
-->

<tripinfos xmlns:xsi="http://www.w3.org/2001/XMLSchema-instance" xsi:noNamespaceSchemaLocation="http://sumo.dlr.de/xsd/tripinfo_file.xsd">
    <tripinfo id="3.0" depart="13.00" departLane="N3A3_0" departPos="5.10" departSpeed="0.00" departDelay="0.00" arrival="127.00" arrivalLane="B3S3_0" arrivalPos="492.80" arrivalSpeed="13.39" duration="114.00" routeLength="1494.90" waitingTime="0.00" waitingCount="0" stopTime="0.00" timeLoss="7.48" rerouteNo="0" devices="tripinfo_3.0" vType="DEFAULT_VEHTYPE" speedFactor="1.01" vaporized=""/>
    <tripinfo id="2.0" depart="33.00" departLane="N2A2_0" departPos="5.10" departSpeed="0.00" departDelay="0.00" arrival="176.00" arrivalLane="B2S2_0" arrivalPos="492.80" arrivalSpeed="11.90" duration="143.00" routeLength="1494.90" waitingTime="6.00" waitingCount="1" stopTime="0.00" timeLoss="21.19" rerouteNo="0" devices="tripinfo_2.0" vType="DEFAULT_VEHTYPE" speedFactor="0.89" vaporized=""/>
    <tripinfo id="6.0" depart="1.00" departLane="N1A1_0" departPos="5.10" departSpeed="0.00" departDelay="0.00" arrival="191.00" arrivalLane="B3E2_0" arrivalPos="496.00" arrivalSpeed="14.53" duration="190.00" routeLength="2495.93" waitingTime="0.00" waitingCount="0" stopTime="0.00" timeLoss="19.26" rerouteNo="0" devices="tripinfo_6.0" vType="DEFAULT_VEHTYPE" speedFactor="1.06" vaporized=""/>
    <tripinfo id="1.0" depart="70.00" departLane="N1A1_0" departPos="5.10" departSpeed="0.00" departDelay="0.00" arrival="209.00" arrivalLane="B1S1_0" arrivalPos="492.80" arrivalSpeed="12.06" duration="139.00" routeLength="1494.90" waitingTime="4.00" waitingCount="2" stopTime="0.00" timeLoss="22.18" rerouteNo="0" devices="tripinfo_1.0" vType="DEFAULT_VEHTYPE" speedFactor="0.93" vaporized=""/>
    <tripinfo id="1.1" depart="90.00" departLane="N1A1_0" departPos="5.10" departSpeed="0.00" departDelay="2.00" arrival="216.00" arrivalLane="B1S1_0" arrivalPos="492.80" arrivalSpeed="13.70" duration="126.00" routeLength="1494.90" waitingTime="0.00" waitingCount="0" stopTime="0.00" timeLoss="20.21" rerouteNo="0" devices="tripinfo_1.1" vType="DEFAULT_VEHTYPE" speedFactor="1.02" vaporized=""/>
    <tripinfo id="6.1" depart="4.00" departLane="N1A1_0" departPos="5.10" departSpeed="0.00" departDelay="1.00" arrival="224.00" arrivalLane="B3E2_0" arrivalPos="496.00" arrivalSpeed="12.62" duration="220.00" routeLength="2495.93" waitingTime="6.00" waitingCount="1" stopTime="0.00" timeLoss="26.78" rerouteNo="0" devices="tripinfo_6.1" vType="DEFAULT_VEHTYPE" speedFactor="0.94" vaporized=""/>
    <tripinfo id="2.1" depart="104.00" departLane="N2A2_0" departPos="5.10" departSpeed="0.00" departDelay="0.00" arrival="231.00" arrivalLane="B2S2_0" arrivalPos="492.80" arrivalSpeed="12.47" duration="127.00" routeLength="1494.90" waitingTime="4.00" waitingCount="1" stopTime="0.00" timeLoss="16.52" rerouteNo="0" devices="tripinfo_2.1" vType="DEFAULT_VEHTYPE" speedFactor="0.98" vaporized=""/>
    <tripinfo id="5.0" depart="21.00" departLane="W2B1_0" departPos="5.10" departSpeed="0.00" departDelay="0.00" arrival="237.00" arrivalLane="B3E2_0" arrivalPos="496.00" arrivalSpeed="10.83" duration="216.00" routeLength="1994.90" waitingTime="25.00" waitingCount="1" stopTime="0.00" timeLoss="42.82" rerouteNo="0" devices="tripinfo_5.0" vType="DEFAULT_VEHTYPE" speedFactor="0.83" vaporized=""/>
    <tripinfo id="2.2" depart="107.00" departLane="N2A2_0" departPos="5.10" departSpeed="0.00" departDelay="2.00" arrival="238.00" arrivalLane="B2S2_0" arrivalPos="492.80" arrivalSpeed="11.06" duration="131.00" routeLength="1494.90" waitingTime="0.00" waitingCount="0" stopTime="0.00" timeLoss="9.76" rerouteNo="0" devices="tripinfo_2.2" vType="DEFAULT_VEHTYPE" speedFactor="0.89" vaporized=""/>
    <tripinfo id="6.2" depart="14.00" departLane="N1A1_0" departPos="5.10" departSpeed="0.00" departDelay="0.00" arrival="239.00" arrivalLane="B3E2_0" arrivalPos="496.00" arrivalSpeed="13.45" duration="225.00" routeLength="2495.93" waitingTime="9.00" waitingCount="2" stopTime="0.00" timeLoss="57.86" rerouteNo="0" devices="tripinfo_6.2" vType="DEFAULT_VEHTYPE" speedFactor="1.08" vaporized=""/>
    <tripinfo id="6.3" depart="20.00" departLane="N1A1_0" departPos="5.10" departSpeed="0.00" departDelay="0.00" arrival="240.00" arrivalLane="B3E2_0" arrivalPos="496.00" arrivalSpeed="13.94" duration="220.00" routeLength="2495.93" waitingTime="4.00" waitingCount="1" stopTime="0.00" timeLoss="44.99" rerouteNo="0" devices="tripinfo_6.3" vType="DEFAULT_VEHTYPE" speedFactor="1.03" vaporized=""/>
    <tripinfo id="6.4" depart="23.00" departLane="N1A1_0" departPos="5.10" departSpeed="0.00" departDelay="2.00" arrival="242.00" arrivalLane="B3E2_0" arrivalPos="496.00" arrivalSpeed="13.46" duration="219.00" routeLength="2495.93" waitingTime="3.00" waitingCount="1" stopTime="0.00" timeLoss="46.42" rerouteNo="0" devices="tripinfo_6.4" vType="DEFAULT_VEHTYPE" speedFactor="1.05" vaporized=""/>
    <tripinfo id="3.1" depart="89.00" departLane="N3A3_0" departPos="5.10" departSpeed="0.00" departDelay="0.00" arrival="242.00" arrivalLane="B3S3_0" arrivalPos="492.80" arrivalSpeed="13.52" duration="153.00" routeLength="1494.90" waitingTime="26.00" waitingCount="1" stopTime="0.00" timeLoss="45.60" rerouteNo="0" devices="tripinfo_3.1" vType="DEFAULT_VEHTYPE" speedFactor="1.01" vaporized=""/>
    <tripinfo id="3.2" depart="125.00" departLane="N3A3_0" departPos="5.10" departSpeed="0.00" departDelay="0.00" arrival="243.00" arrivalLane="B3S3_0" arrivalPos="492.80" arrivalSpeed="15.62" duration="118.00" routeLength="1494.90" waitingTime="0.00" waitingCount="0" stopTime="0.00" timeLoss="22.60" rerouteNo="0" devices="tripinfo_3.2" vType="DEFAULT_VEHTYPE" speedFactor="1.13" vaporized=""/>
    <tripinfo id="6.5" depart="38.00" departLane="N1A1_0" departPos="5.10" departSpeed="0.00" departDelay="0.00" arrival="254.00" arrivalLane="B3E2_0" arrivalPos="496.00" arrivalSpeed="13.01" duration="216.00" routeLength="2495.93" waitingTime="5.00" waitingCount="1" stopTime="0.00" timeLoss="23.15" rerouteNo="0" devices="tripinfo_6.5" vType="DEFAULT_VEHTYPE" speedFactor="0.94" vaporized=""/>
    <tripinfo id="6.6" depart="41.00" departLane="N1A1_0" departPos="5.10" departSpeed="0.00" departDelay="1.00" arrival="268.00" arrivalLane="B3E2_0" arrivalPos="496.00" arrivalSpeed="11.90" duration="227.00" routeLength="2495.93" waitingTime="0.00" waitingCount="0" stopTime="0.00" timeLoss="16.35" rerouteNo="0" devices="tripinfo_6.6" vType="DEFAULT_VEHTYPE" speedFactor="0.86" vaporized=""/>
    <tripinfo id="6.7" depart="44.00" departLane="N1A1_0" departPos="5.10" departSpeed="0.00" departDelay="2.00" arrival="270.00" arrivalLane="B3E2_0" arrivalPos="496.00" arrivalSpeed="14.59" duration="226.00" routeLength="2495.93" waitingTime="0.00" waitingCount="0" stopTime="0.00" timeLoss="59.55" rerouteNo="0" devices="tripinfo_6.7" vType="DEFAULT_VEHTYPE" speedFactor="1.09" vaporized=""/>
    <tripinfo id="6.8" depart="47.00" departLane="N1A1_0" departPos="5.10" departSpeed="0.00" departDelay="0.00" arrival="271.00" arrivalLane="B3E2_0" arrivalPos="496.00" arrivalSpeed="13.47" duration="224.00" routeLength="2495.93" waitingTime="0.00" waitingCount="0" stopTime="0.00" timeLoss="48.31" rerouteNo="0" devices="tripinfo_6.8" vType="DEFAULT_VEHTYPE" speedFactor="1.03" vaporized=""/>
    <tripinfo id="6.9" depart="56.00" departLane="N1A1_0" departPos="5.10" departSpeed="0.00" departDelay="0.00" arrival="273.00" arrivalLane="B3E2_0" arrivalPos="496.00" arrivalSpeed="14.07" duration="217.00" routeLength="2495.93" waitingTime="0.00" waitingCount="0" stopTime="0.00" timeLoss="44.41" rerouteNo="0" devices="tripinfo_6.9" vType="DEFAULT_VEHTYPE" speedFactor="1.05" vaporized=""/>
    <tripinfo id="1.2" depart="147.00" departLane="N1A1_0" departPos="5.10" departSpeed="0.00" departDelay="1.00" arrival="273.00" arrivalLane="B1S1_0" arrivalPos="492.80" arrivalSpeed="13.54" duration="126.00" routeLength="1494.90" waitingTime="0.00" waitingCount="0" stopTime="0.00" timeLoss="17.38" rerouteNo="0" devices="tripinfo_1.2" vType="DEFAULT_VEHTYPE" speedFactor="0.99" vaporized=""/>
    <tripinfo id="6.10" depart="59.00" departLane="N1A1_0" departPos="5.10" departSpeed="0.00" departDelay="0.00" arrival="275.00" arrivalLane="B3E2_0" arrivalPos="496.00" arrivalSpeed="15.57" duration="216.00" routeLength="2495.93" waitingTime="0.00" waitingCount="0" stopTime="0.00" timeLoss="54.06" rerouteNo="0" devices="tripinfo_6.10" vType="DEFAULT_VEHTYPE" speedFactor="1.12" vaporized=""/>
    <tripinfo id="1.3" depart="150.00" departLane="N1A1_0" departPos="5.10" departSpeed="0.00" departDelay="0.00" arrival="275.00" arrivalLane="B1S1_0" arrivalPos="492.80" arrivalSpeed="13.45" duration="125.00" routeLength="1494.90" waitingTime="0.00" waitingCount="0" stopTime="0.00" timeLoss="18.88" rerouteNo="0" devices="tripinfo_1.3" vType="DEFAULT_VEHTYPE" speedFactor="1.02" vaporized=""/>
    <tripinfo id="6.11" depart="64.00" departLane="N1A1_0" departPos="5.10" departSpeed="0.00" departDelay="0.00" arrival="278.00" arrivalLane="B3E2_0" arrivalPos="496.00" arrivalSpeed="13.01" duration="214.00" routeLength="2495.93" waitingTime="9.00" waitingCount="1" stopTime="0.00" timeLoss="31.78" rerouteNo="0" devices="tripinfo_6.11" vType="DEFAULT_VEHTYPE" speedFactor="0.99" vaporized=""/>
    <tripinfo id="2.3" depart="154.00" departLane="N2A2_0" departPos="5.10" departSpeed="0.00" departDelay="0.00" arrival="290.00" arrivalLane="B2S2_0" arrivalPos="492.80" arrivalSpeed="12.93" duration="136.00" routeLength="1494.90" waitingTime="11.00" waitingCount="1" stopTime="0.00" timeLoss="25.38" rerouteNo="0" devices="tripinfo_2.3" vType="DEFAULT_VEHTYPE" speedFactor="0.97" vaporized=""/>
    <tripinfo id="1.4" depart="181.00" departLane="N1A1_0" departPos="5.10" departSpeed="0.00" departDelay="0.00" arrival="294.00" arrivalLane="B1S1_0" arrivalPos="492.80" arrivalSpeed="14.06" duration="113.00" routeLength="1494.90" waitingTime="0.00" waitingCount="0" stopTime="0.00" timeLoss="8.21" rerouteNo="0" devices="tripinfo_1.4" vType="DEFAULT_VEHTYPE" speedFactor="1.03" vaporized=""/>
    <tripinfo id="4.0" depart="84.00" departLane="W1A1_0" departPos="5.10" departSpeed="0.00" departDelay="0.00" arrival="300.00" arrivalLane="A3E1_0" arrivalPos="496.00" arrivalSpeed="12.90" duration="216.00" routeLength="1994.90" waitingTime="41.00" waitingCount="2" stopTime="0.00" timeLoss="62.87" rerouteNo="0" devices="tripinfo_4.0" vType="DEFAULT_VEHTYPE" speedFactor="0.94" vaporized=""/>
    <tripinfo id="3.3" depart="193.00" departLane="N3A3_0" departPos="5.10" departSpeed="0.00" departDelay="0.00" arrival="300.00" arrivalLane="B3S3_0" arrivalPos="492.80" arrivalSpeed="13.89" duration="107.00" routeLength="1494.90" waitingTime="0.00" waitingCount="0" stopTime="0.00" timeLoss="7.79" rerouteNo="0" devices="tripinfo_3.3" vType="DEFAULT_VEHTYPE" speedFactor="1.09" vaporized=""/>
    <tripinfo id="4.1" depart="109.00" departLane="W1A1_0" departPos="5.10" departSpeed="0.00" departDelay="0.00" arrival="313.00" arrivalLane="A3E1_0" arrivalPos="496.00" arrivalSpeed="10.21" duration="204.00" routeLength="1994.90" waitingTime="9.00" waitingCount="1" stopTime="0.00" timeLoss="29.76" rerouteNo="0" devices="tripinfo_4.1" vType="DEFAULT_VEHTYPE" speedFactor="0.83" vaporized=""/>
    <tripinfo id="4.2" depart="112.00" departLane="W1A1_0" departPos="5.10" departSpeed="0.00" departDelay="1.00" arrival="315.00" arrivalLane="A3E1_0" arrivalPos="496.00" arrivalSpeed="12.43" duration="203.00" routeLength="1994.90" waitingTime="9.00" waitingCount="1" stopTime="0.00" timeLoss="50.93" rerouteNo="0" devices="tripinfo_4.2" vType="DEFAULT_VEHTYPE" speedFactor="0.95" vaporized=""/>
    <tripinfo id="6.12" depart="81.00" departLane="N1A1_0" departPos="5.10" departSpeed="0.00" departDelay="0.00" arrival="316.00" arrivalLane="B3E2_0" arrivalPos="496.00" arrivalSpeed="11.33" duration="235.00" routeLength="2495.93" waitingTime="8.00" waitingCount="1" stopTime="0.00" timeLoss="29.98" rerouteNo="0" devices="tripinfo_6.12" vType="DEFAULT_VEHTYPE" speedFactor="0.88" vaporized=""/>
    <tripinfo id="6.13" depart="84.00" departLane="N1A1_0" departPos="5.10" departSpeed="0.00" departDelay="0.00" arrival="318.00" arrivalLane="B3E2_0" arrivalPos="496.00" arrivalSpeed="11.78" duration="234.00" routeLength="2495.93" waitingTime="8.00" waitingCount="1" stopTime="0.00" timeLoss="41.37" rerouteNo="0" devices="tripinfo_6.13" vType="DEFAULT_VEHTYPE" speedFactor="0.94" vaporized=""/>
    <tripinfo id="6.14" depart="87.00" departLane="N1A1_0" departPos="5.10" departSpeed="0.00" departDelay="2.00" arrival="320.00" arrivalLane="B3E2_0" arrivalPos="496.00" arrivalSpeed="14.61" duration="233.00" routeLength="2495.93" waitingTime="8.00" waitingCount="1" stopTime="0.00" timeLoss="76.44" rerouteNo="0" devices="tripinfo_6.14" vType="DEFAULT_VEHTYPE" speedFactor="1.16" vaporized=""/>
    <tripinfo id="6.15" depart="109.00" departLane="N1A1_0" departPos="5.10" departSpeed="0.00" departDelay="0.00" arrival="331.00" arrivalLane="B3E2_0" arrivalPos="496.00" arrivalSpeed="11.70" duration="222.00" routeLength="2495.93" waitingTime="0.00" waitingCount="0" stopTime="0.00" timeLoss="14.84" rerouteNo="0" devices="tripinfo_6.15" vType="DEFAULT_VEHTYPE" speedFactor="0.87" vaporized=""/>
    <tripinfo id="6.16" depart="112.00" departLane="N1A1_0" departPos="5.10" departSpeed="0.00" departDelay="2.00" arrival="333.00" arrivalLane="B3E2_0" arrivalPos="496.00" arrivalSpeed="11.46" duration="221.00" routeLength="2495.93" waitingTime="0.00" waitingCount="0" stopTime="0.00" timeLoss="23.66" rerouteNo="0" devices="tripinfo_6.16" vType="DEFAULT_VEHTYPE" speedFactor="0.92" vaporized=""/>
    <tripinfo id="5.1" depart="131.00" departLane="W2B1_0" departPos="5.10" departSpeed="0.00" departDelay="0.00" arrival="335.00" arrivalLane="B3E2_0" arrivalPos="496.00" arrivalSpeed="15.01" duration="204.00" routeLength="1994.90" waitingTime="48.00" waitingCount="2" stopTime="0.00" timeLoss="78.67" rerouteNo="0" devices="tripinfo_5.1" vType="DEFAULT_VEHTYPE" speedFactor="1.15" vaporized=""/>
    <tripinfo id="5.2" depart="158.00" departLane="W2B1_0" departPos="5.10" departSpeed="0.00" departDelay="0.00" arrival="336.00" arrivalLane="B3E2_0" arrivalPos="496.00" arrivalSpeed="15.14" duration="178.00" routeLength="1994.90" waitingTime="23.00" waitingCount="2" stopTime="0.00" timeLoss="55.97" rerouteNo="0" devices="tripinfo_5.2" vType="DEFAULT_VEHTYPE" speedFactor="1.18" vaporized=""/>
    <tripinfo id="1.5" depart="223.00" departLane="N1A1_0" departPos="5.10" departSpeed="0.00" departDelay="0.00" arrival="337.00" arrivalLane="B1S1_0" arrivalPos="492.80" arrivalSpeed="15.05" duration="114.00" routeLength="1494.90" waitingTime="0.00" waitingCount="0" stopTime="0.00" timeLoss="15.28" rerouteNo="0" devices="tripinfo_1.5" vType="DEFAULT_VEHTYPE" speedFactor="1.10" vaporized=""/>
    <tripinfo id="6.17" depart="126.00" departLane="N1A1_0" departPos="5.10" departSpeed="0.00" departDelay="0.00" arrival="349.00" arrivalLane="B3E2_0" arrivalPos="496.00" arrivalSpeed="12.43" duration="223.00" routeLength="2495.93" waitingTime="5.00" waitingCount="1" stopTime="0.00" timeLoss="28.86" rerouteNo="0" devices="tripinfo_6.17" vType="DEFAULT_VEHTYPE" speedFactor="0.93" vaporized=""/>
    <tripinfo id="6.18" depart="129.00" departLane="N1A1_0" departPos="5.10" departSpeed="0.00" departDelay="1.00" arrival="351.00" arrivalLane="B3E2_0" arrivalPos="496.00" arrivalSpeed="15.64" duration="222.00" routeLength="2495.93" waitingTime="4.00" waitingCount="1" stopTime="0.00" timeLoss="68.29" rerouteNo="0" devices="tripinfo_6.18" vType="DEFAULT_VEHTYPE" speedFactor="1.18" vaporized=""/>
    <tripinfo id="6.19" depart="138.00" departLane="N1A1_0" departPos="5.10" departSpeed="0.00" departDelay="0.00" arrival="352.00" arrivalLane="B3E2_0" arrivalPos="496.00" arrivalSpeed="13.90" duration="214.00" routeLength="2495.93" waitingTime="0.00" waitingCount="0" stopTime="0.00" timeLoss="34.62" rerouteNo="0" devices="tripinfo_6.19" vType="DEFAULT_VEHTYPE" speedFactor="1.01" vaporized=""/>
    <tripinfo id="2.4" depart="177.00" departLane="N2A2_0" departPos="5.10" departSpeed="0.00" departDelay="0.00" arrival="352.00" arrivalLane="B2S2_0" arrivalPos="492.80" arrivalSpeed="11.53" duration="175.00" routeLength="1494.90" waitingTime="37.00" waitingCount="2" stopTime="0.00" timeLoss="55.35" rerouteNo="0" devices="tripinfo_2.4" vType="DEFAULT_VEHTYPE" speedFactor="0.90" vaporized=""/>
    <tripinfo id="6.20" depart="144.00" departLane="N1A1_0" departPos="5.10" departSpeed="0.00" departDelay="0.00" arrival="354.00" arrivalLane="B3E2_0" arrivalPos="496.00" arrivalSpeed="16.24" duration="210.00" routeLength="2495.93" waitingTime="0.00" waitingCount="0" stopTime="0.00" timeLoss="55.70" rerouteNo="0" devices="tripinfo_6.20" vType="DEFAULT_VEHTYPE" speedFactor="1.17" vaporized=""/>
    <tripinfo id="4.3" depart="193.00" departLane="W1A1_0" departPos="5.10" departSpeed="0.00" departDelay="0.00" arrival="355.00" arrivalLane="A3E1_0" arrivalPos="496.00" arrivalSpeed="12.60" duration="162.00" routeLength="1994.90" waitingTime="2.00" waitingCount="1" stopTime="0.00" timeLoss="17.29" rerouteNo="0" devices="tripinfo_4.3" vType="DEFAULT_VEHTYPE" speedFactor="1.00" vaporized=""/>
    <tripinfo id="2.5" depart="199.00" departLane="N2A2_0" departPos="5.10" departSpeed="0.00" departDelay="0.00" arrival="355.00" arrivalLane="B2S2_0" arrivalPos="492.80" arrivalSpeed="11.17" duration="156.00" routeLength="1494.90" waitingTime="12.00" waitingCount="1" stopTime="0.00" timeLoss="33.24" rerouteNo="0" devices="tripinfo_2.5" vType="DEFAULT_VEHTYPE" speedFactor="0.88" vaporized=""/>
    <tripinfo id="6.21" depart="167.00" departLane="N1A1_0" departPos="5.10" departSpeed="0.00" departDelay="0.00" arrival="356.00" arrivalLane="B3E2_0" arrivalPos="496.00" arrivalSpeed="14.04" duration="189.00" routeLength="2495.93" waitingTime="0.00" waitingCount="0" stopTime="0.00" timeLoss="24.75" rerouteNo="0" devices="tripinfo_6.21" vType="DEFAULT_VEHTYPE" speedFactor="1.10" vaporized=""/>
    <tripinfo id="3.4" depart="212.00" departLane="N3A3_0" departPos="5.10" departSpeed="0.00" departDelay="0.00" arrival="356.00" arrivalLane="B3S3_0" arrivalPos="492.80" arrivalSpeed="15.78" duration="144.00" routeLength="1494.90" waitingTime="31.00" waitingCount="2" stopTime="0.00" timeLoss="51.04" rerouteNo="0" devices="tripinfo_3.4" vType="DEFAULT_VEHTYPE" speedFactor="1.17" vaporized=""/>
    <tripinfo id="2.6" depart="202.00" departLane="N2A2_0" departPos="5.10" departSpeed="0.00" departDelay="1.00" arrival="359.00" arrivalLane="B2S2_0" arrivalPos="492.80" arrivalSpeed="11.63" duration="157.00" routeLength="1494.90" waitingTime="12.00" waitingCount="1" stopTime="0.00" timeLoss="30.44" rerouteNo="0" devices="tripinfo_2.6" vType="DEFAULT_VEHTYPE" speedFactor="0.85" vaporized=""/>
    <tripinfo id="1.6" depart="249.00" departLane="N1A1_0" departPos="5.10" departSpeed="0.00" departDelay="0.00" arrival="382.00" arrivalLane="B1S1_0" arrivalPos="492.80" arrivalSpeed="12.92" duration="133.00" routeLength="1494.90" waitingTime="8.00" waitingCount="2" stopTime="0.00" timeLoss="27.00" rerouteNo="0" devices="tripinfo_1.6" vType="DEFAULT_VEHTYPE" speedFactor="1.02" vaporized=""/>
    <tripinfo id="5.3" depart="244.00" departLane="W2B1_0" departPos="5.10" departSpeed="0.00" departDelay="0.00" arrival="387.00" arrivalLane="B3E2_0" arrivalPos="496.00" arrivalSpeed="14.92" duration="143.00" routeLength="1994.90" waitingTime="0.00" waitingCount="0" stopTime="0.00" timeLoss="14.27" rerouteNo="0" devices="tripinfo_5.3" vType="DEFAULT_VEHTYPE" speedFactor="1.12" vaporized=""/>
    <tripinfo id="6.22" depart="184.00" departLane="N1A1_0" departPos="5.10" departSpeed="0.00" departDelay="3.00" arrival="404.00" arrivalLane="B3E2_0" arrivalPos="496.00" arrivalSpeed="12.99" duration="220.00" routeLength="2495.93" waitingTime="9.00" waitingCount="2" stopTime="0.00" timeLoss="31.76" rerouteNo="0" devices="tripinfo_6.22" vType="DEFAULT_VEHTYPE" speedFactor="0.96" vaporized=""/>
    <tripinfo id="6.23" depart="187.00" departLane="N1A1_0" departPos="5.10" departSpeed="0.00" departDelay="0.00" arrival="406.00" arrivalLane="B3E2_0" arrivalPos="496.00" arrivalSpeed="14.28" duration="219.00" routeLength="2495.93" waitingTime="8.00" waitingCount="2" stopTime="0.00" timeLoss="53.12" rerouteNo="0" devices="tripinfo_6.23" vType="DEFAULT_VEHTYPE" speedFactor="1.09" vaporized=""/>
    <tripinfo id="6.24" depart="190.00" departLane="N1A1_0" departPos="5.10" departSpeed="0.00" departDelay="2.00" arrival="408.00" arrivalLane="B3E2_0" arrivalPos="496.00" arrivalSpeed="13.20" duration="218.00" routeLength="2495.93" waitingTime="5.00" waitingCount="1" stopTime="0.00" timeLoss="43.88" rerouteNo="0" devices="tripinfo_6.24" vType="DEFAULT_VEHTYPE" speedFactor="1.04" vaporized=""/>
    <tripinfo id="6.25" depart="193.00" departLane="N1A1_0" departPos="5.10" departSpeed="0.00" departDelay="4.00" arrival="410.00" arrivalLane="B3E2_0" arrivalPos="496.00" arrivalSpeed="13.46" duration="217.00" routeLength="2495.93" waitingTime="5.00" waitingCount="1" stopTime="0.00" timeLoss="43.02" rerouteNo="0" devices="tripinfo_6.25" vType="DEFAULT_VEHTYPE" speedFactor="1.04" vaporized=""/>
    <tripinfo id="4.4" depart="224.00" departLane="W1A1_0" departPos="5.10" departSpeed="0.00" departDelay="0.00" arrival="413.00" arrivalLane="A3E1_0" arrivalPos="496.00" arrivalSpeed="12.95" duration="189.00" routeLength="1994.90" waitingTime="23.00" waitingCount="2" stopTime="0.00" timeLoss="45.30" rerouteNo="0" devices="tripinfo_4.4" vType="DEFAULT_VEHTYPE" speedFactor="1.00" vaporized=""/>
    <tripinfo id="4.5" depart="242.00" departLane="W1A1_0" departPos="5.10" departSpeed="0.00" departDelay="0.00" arrival="414.00" arrivalLane="A3E1_0" arrivalPos="496.00" arrivalSpeed="14.76" duration="172.00" routeLength="1994.90" waitingTime="9.00" waitingCount="2" stopTime="0.00" timeLoss="39.32" rerouteNo="0" devices="tripinfo_4.5" vType="DEFAULT_VEHTYPE" speedFactor="1.08" vaporized=""/>
    <tripinfo id="3.5" depart="266.00" departLane="N3A3_0" departPos="5.10" departSpeed="0.00" departDelay="0.00" arrival="422.00" arrivalLane="B3S3_0" arrivalPos="492.80" arrivalSpeed="12.25" duration="156.00" routeLength="1494.90" waitingTime="21.00" waitingCount="1" stopTime="0.00" timeLoss="36.56" rerouteNo="0" devices="tripinfo_3.5" vType="DEFAULT_VEHTYPE" speedFactor="0.91" vaporized=""/>
    <tripinfo id="3.6" depart="269.00" departLane="N3A3_0" departPos="5.10" departSpeed="0.00" departDelay="0.00" arrival="423.00" arrivalLane="B3S3_0" arrivalPos="492.80" arrivalSpeed="13.70" duration="154.00" routeLength="1494.90" waitingTime="19.00" waitingCount="1" stopTime="0.00" timeLoss="48.59" rerouteNo="0" devices="tripinfo_3.6" vType="DEFAULT_VEHTYPE" speedFactor="1.02" vaporized=""/>
    <tripinfo id="3.7" depart="297.00" departLane="N3A3_0" departPos="5.10" departSpeed="0.00" departDelay="0.00" arrival="425.00" arrivalLane="B3S3_0" arrivalPos="492.80" arrivalSpeed="13.21" duration="128.00" routeLength="1494.90" waitingTime="0.00" waitingCount="0" stopTime="0.00" timeLoss="15.03" rerouteNo="0" devices="tripinfo_3.7" vType="DEFAULT_VEHTYPE" speedFactor="0.96" vaporized=""/>
    <tripinfo id="6.26" depart="197.00" departLane="N1A1_0" departPos="5.10" departSpeed="0.00" departDelay="0.00" arrival="434.00" arrivalLane="B3E2_0" arrivalPos="496.00" arrivalSpeed="12.16" duration="237.00" routeLength="2495.93" waitingTime="5.00" waitingCount="1" stopTime="0.00" timeLoss="35.54" rerouteNo="0" devices="tripinfo_6.26" vType="DEFAULT_VEHTYPE" speedFactor="0.90" vaporized=""/>
    <tripinfo id="6.27" depart="203.00" departLane="N1A1_0" departPos="5.10" departSpeed="0.00" departDelay="0.00" arrival="438.00" arrivalLane="B3E2_0" arrivalPos="496.00" arrivalSpeed="11.31" duration="235.00" routeLength="2495.93" waitingTime="0.00" waitingCount="0" stopTime="0.00" timeLoss="23.43" rerouteNo="0" devices="tripinfo_6.27" vType="DEFAULT_VEHTYPE" speedFactor="0.85" vaporized=""/>
    <tripinfo id="6.28" depart="219.00" departLane="N1A1_0" departPos="5.10" departSpeed="0.00" departDelay="0.00" arrival="439.00" arrivalLane="B3E2_0" arrivalPos="496.00" arrivalSpeed="12.27" duration="220.00" routeLength="2495.93" waitingTime="0.00" waitingCount="0" stopTime="0.00" timeLoss="42.16" rerouteNo="0" devices="tripinfo_6.28" vType="DEFAULT_VEHTYPE" speedFactor="1.02" vaporized=""/>
    <tripinfo id="6.29" depart="226.00" departLane="N1A1_0" departPos="5.10" departSpeed="0.00" departDelay="2.00" arrival="441.00" arrivalLane="B3E2_0" arrivalPos="496.00" arrivalSpeed="13.34" duration="215.00" routeLength="2495.93" waitingTime="0.00" waitingCount="0" stopTime="0.00" timeLoss="33.55" rerouteNo="0" devices="tripinfo_6.29" vType="DEFAULT_VEHTYPE" speedFactor="1.00" vaporized=""/>
    <tripinfo id="6.30" depart="229.00" departLane="N1A1_0" departPos="5.10" departSpeed="0.00" departDelay="3.00" arrival="447.00" arrivalLane="B3E2_0" arrivalPos="496.00" arrivalSpeed="11.94" duration="218.00" routeLength="2495.93" waitingTime="0.00" waitingCount="0" stopTime="0.00" timeLoss="16.23" rerouteNo="0" devices="tripinfo_6.30" vType="DEFAULT_VEHTYPE" speedFactor="0.90" vaporized=""/>
    <tripinfo id="6.31" depart="232.00" departLane="N1A1_0" departPos="5.10" departSpeed="0.00" departDelay="3.00" arrival="448.00" arrivalLane="B3E2_0" arrivalPos="496.00" arrivalSpeed="14.91" duration="216.00" routeLength="2495.93" waitingTime="0.00" waitingCount="0" stopTime="0.00" timeLoss="58.03" rerouteNo="0" devices="tripinfo_6.31" vType="DEFAULT_VEHTYPE" speedFactor="1.14" vaporized=""/>
    <tripinfo id="1.7" depart="321.00" departLane="N1A1_0" departPos="5.10" departSpeed="0.00" departDelay="0.00" arrival="449.00" arrivalLane="B1S1_0" arrivalPos="492.80" arrivalSpeed="13.25" duration="128.00" routeLength="1494.90" waitingTime="0.00" waitingCount="0" stopTime="0.00" timeLoss="19.35" rerouteNo="0" devices="tripinfo_1.7" vType="DEFAULT_VEHTYPE" speedFactor="1.00" vaporized=""/>
    <tripinfo id="6.32" depart="235.00" departLane="N1A1_0" departPos="5.10" departSpeed="0.00" departDelay="5.00" arrival="453.00" arrivalLane="B3E2_0" arrivalPos="496.00" arrivalSpeed="13.41" duration="218.00" routeLength="2495.93" waitingTime="8.00" waitingCount="1" stopTime="0.00" timeLoss="41.59" rerouteNo="0" devices="tripinfo_6.32" vType="DEFAULT_VEHTYPE" speedFactor="1.02" vaporized=""/>
    <tripinfo id="6.33" depart="239.00" departLane="N1A1_0" departPos="5.10" departSpeed="0.00" departDelay="6.00" arrival="460.00" arrivalLane="B3E2_0" arrivalPos="496.00" arrivalSpeed="12.40" duration="221.00" routeLength="2495.93" waitingTime="7.00" waitingCount="1" stopTime="0.00" timeLoss="34.39" rerouteNo="0" devices="tripinfo_6.33" vType="DEFAULT_VEHTYPE" speedFactor="0.97" vaporized=""/>
    <tripinfo id="5.4" depart="268.00" departLane="W2B1_0" departPos="5.10" departSpeed="0.00" departDelay="0.00" arrival="461.00" arrivalLane="B3E2_0" arrivalPos="496.00" arrivalSpeed="14.25" duration="193.00" routeLength="1994.90" waitingTime="27.00" waitingCount="2" stopTime="0.00" timeLoss="54.63" rerouteNo="0" devices="tripinfo_5.4" vType="DEFAULT_VEHTYPE" speedFactor="1.04" vaporized=""/>
    <tripinfo id="2.7" depart="313.00" departLane="N2A2_0" departPos="5.10" departSpeed="0.00" departDelay="0.00" arrival="463.00" arrivalLane="B2S2_0" arrivalPos="492.80" arrivalSpeed="14.47" duration="150.00" routeLength="1494.90" waitingTime="32.00" waitingCount="2" stopTime="0.00" timeLoss="50.91" rerouteNo="0" devices="tripinfo_2.7" vType="DEFAULT_VEHTYPE" speedFactor="1.09" vaporized=""/>
    <tripinfo id="5.5" depart="278.00" departLane="W2B1_0" departPos="5.10" departSpeed="0.00" departDelay="0.00" arrival="465.00" arrivalLane="B3E2_0" arrivalPos="496.00" arrivalSpeed="12.52" duration="187.00" routeLength="1994.90" waitingTime="11.00" waitingCount="1" stopTime="0.00" timeLoss="34.11" rerouteNo="0" devices="tripinfo_5.5" vType="DEFAULT_VEHTYPE" speedFactor="0.94" vaporized=""/>
    <tripinfo id="1.8" depart="350.00" departLane="N1A1_0" departPos="5.10" departSpeed="0.00" departDelay="2.00" arrival="466.00" arrivalLane="B1S1_0" arrivalPos="492.80" arrivalSpeed="14.80" duration="116.00" routeLength="1494.90" waitingTime="0.00" waitingCount="0" stopTime="0.00" timeLoss="21.79" rerouteNo="0" devices="tripinfo_1.8" vType="DEFAULT_VEHTYPE" speedFactor="1.15" vaporized=""/>
    <tripinfo id="6.34" depart="252.00" departLane="N1A1_0" departPos="5.10" departSpeed="0.00" departDelay="3.00" arrival="467.00" arrivalLane="B3E2_0" arrivalPos="496.00" arrivalSpeed="12.78" duration="215.00" routeLength="2495.93" waitingTime="4.00" waitingCount="2" stopTime="0.00" timeLoss="32.13" rerouteNo="0" devices="tripinfo_6.34" vType="DEFAULT_VEHTYPE" speedFactor="0.99" vaporized=""/>