<?xml version="1.0" encoding="UTF-8"?>

<!-- generated on 2021-11-02 09:22:37 by Eclipse SUMO sumo Version 1.10.0
<configuration xmlns:xsi="http://www.w3.org/2001/XMLSchema-instance" xsi:noNamespaceSchemaLocation="http://sumo.dlr.de/xsd/sumoConfiguration.xsd">

    <input>
        <net-file value="C:\Users\Marcus\Desktop\Hauptordner\Studium\Masterstudium\3.%20Semester\Projekt_Sim-Opt\Traffic_Simulation\TwoCross\twoCross.net.xml"/>
        <route-files value="C:\Users\Marcus\Desktop\Hauptordner\Studium\Masterstudium\3.%20Semester\Projekt_Sim-Opt\Traffic_Simulation\TwoCross\twoCrossRoutes.xml"/>
    </input>

    <output>
        <tripinfo-output value="tripinfo.xml"/>
        <statistic-output value="statistics.xml"/>
    </output>

    <report>
        <no-step-log value="true"/>
    </report>

    <traci_server>
        <remote-port value="64231"/>
    </traci_server>

</configuration>
-->

<tripinfos xmlns:xsi="http://www.w3.org/2001/XMLSchema-instance" xsi:noNamespaceSchemaLocation="http://sumo.dlr.de/xsd/tripinfo_file.xsd">
    <tripinfo id="3" depart="13.00" departLane="b2b1_0" departPos="15.04" departSpeed="0.00" departDelay="0.00" arrival="22.00" arrivalLane="b2b1.45_0" arrivalPos="51.00" arrivalSpeed="14.02" duration="9.00" routeLength="74.56" waitingTime="0.00" waitingCount="0" stopTime="0.00" timeLoss="3.35" rerouteNo="0" devices="tripinfo_3" vType="DEFAULT_VEHTYPE" speedFactor="1.08" vaporized=""/>
    <tripinfo id="4" depart="21.00" departLane="-gneE2_0" departPos="30.09" departSpeed="0.00" departDelay="0.00" arrival="33.00" arrivalLane="-gneE2.49_1" arrivalPos="30.60" arrivalSpeed="6.33" duration="12.00" routeLength="59.91" waitingTime="0.00" waitingCount="0" stopTime="0.00" timeLoss="7.53" rerouteNo="0" devices="tripinfo_4" vType="DEFAULT_VEHTYPE" speedFactor="1.03" vaporized=""/>
    <tripinfo id="6" depart="27.00" departLane="-gneE1_0" departPos="22.74" departSpeed="0.00" departDelay="0.00" arrival="35.00" arrivalLane="-gneE1.49_0" arrivalPos="51.00" arrivalSpeed="13.40" duration="8.00" routeLength="66.86" waitingTime="0.00" waitingCount="0" stopTime="0.00" timeLoss="2.77" rerouteNo="0" devices="tripinfo_6" vType="DEFAULT_VEHTYPE" speedFactor="1.05" vaporized=""/>
    <tripinfo id="8" depart="37.00" departLane="gneE2_0" departPos="16.69" departSpeed="0.00" departDelay="0.00" arrival="46.00" arrivalLane="gneE2.50_0" arrivalPos="51.00" arrivalSpeed="11.79" duration="9.00" routeLength="72.91" waitingTime="0.00" waitingCount="0" stopTime="0.00" timeLoss="2.66" rerouteNo="0" devices="tripinfo_8" vType="DEFAULT_VEHTYPE" speedFactor="0.94" vaporized=""/>
    <tripinfo id="10" depart="43.00" departLane="-gneE0_0" departPos="0.18" departSpeed="0.00" departDelay="0.00" arrival="53.00" arrivalLane="-gneE0.56_0" arrivalPos="51.00" arrivalSpeed="14.96" duration="10.00" routeLength="89.42" waitingTime="0.00" waitingCount="0" stopTime="0.00" timeLoss="3.66" rerouteNo="0" devices="tripinfo_10" vType="DEFAULT_VEHTYPE" speedFactor="1.09" vaporized=""/>
    <tripinfo id="2" depart="6.00" departLane="em_0" departPos="3.60" departSpeed="0.00" departDelay="0.00" arrival="55.00" arrivalLane="b2b1.45_0" arrivalPos="51.00" arrivalSpeed="13.52" duration="49.00" routeLength="176.93" waitingTime="28.00" waitingCount="1" stopTime="0.00" timeLoss="35.19" rerouteNo="0" devices="tripinfo_2" vType="DEFAULT_VEHTYPE" speedFactor="1.01" vaporized=""/>
    <tripinfo id="9" depart="40.00" departLane="em_0" departPos="59.01" departSpeed="0.00" departDelay="0.00" arrival="59.00" arrivalLane="b2a2.56_0" arrivalPos="51.00" arrivalSpeed="11.85" duration="19.00" routeLength="130.88" waitingTime="0.00" waitingCount="0" stopTime="0.00" timeLoss="7.05" rerouteNo="0" devices="tripinfo_9" vType="DEFAULT_VEHTYPE" speedFactor="0.86" vaporized=""/>
    <tripinfo id="0" depart="1.00" departLane="-gneE2_0" departPos="45.44" departSpeed="0.00" departDelay="0.00" arrival="63.00" arrivalLane="b2b1.45_0" arrivalPos="51.00" arrivalSpeed="14.05" duration="62.00" routeLength="245.89" waitingTime="34.00" waitingCount="1" stopTime="0.00" timeLoss="44.85" rerouteNo="0" devices="tripinfo_0" vType="DEFAULT_VEHTYPE" speedFactor="1.06" vaporized=""/>
    <tripinfo id="1" depart="5.00" departLane="a2b2.43_0" departPos="21.80" departSpeed="0.00" departDelay="0.00" arrival="66.00" arrivalLane="-gneE1.49_0" arrivalPos="51.00" arrivalSpeed="12.94" duration="61.00" routeLength="210.13" waitingTime="35.00" waitingCount="1" stopTime="0.00" timeLoss="43.24" rerouteNo="0" devices="tripinfo_1" vType="DEFAULT_VEHTYPE" speedFactor="0.94" vaporized=""/>
    <tripinfo id="12" depart="49.00" departLane="a2b2.43_0" departPos="14.26" departSpeed="0.00" departDelay="0.00" arrival="71.00" arrivalLane="-gneE0.56_0" arrivalPos="51.00" arrivalSpeed="13.72" duration="22.00" routeLength="225.30" waitingTime="0.00" waitingCount="0" stopTime="0.00" timeLoss="4.92" rerouteNo="0" devices="tripinfo_12" vType="DEFAULT_VEHTYPE" speedFactor="1.05" vaporized=""/>
    <tripinfo id="17" depart="71.00" departLane="-gneE0_0" departPos="26.79" departSpeed="0.00" departDelay="0.00" arrival="73.00" arrivalLane="-gneE0_0" arrivalPos="30.60" arrivalSpeed="4.42" duration="2.00" routeLength="3.81" waitingTime="0.00" waitingCount="0" stopTime="0.00" timeLoss="1.48" rerouteNo="0" devices="tripinfo_17" vType="DEFAULT_VEHTYPE" speedFactor="0.94" vaporized=""/>
    <tripinfo id="16" depart="70.00" departLane="b2b1_0" departPos="1.84" departSpeed="0.00" departDelay="0.00" arrival="81.00" arrivalLane="b2b1.45_0" arrivalPos="51.00" arrivalSpeed="10.93" duration="11.00" routeLength="87.76" waitingTime="0.00" waitingCount="0" stopTime="0.00" timeLoss="3.27" rerouteNo="0" devices="tripinfo_16" vType="DEFAULT_VEHTYPE" speedFactor="0.88" vaporized=""/>
    <tripinfo id="19" depart="78.00" departLane="-gneE0_0" departPos="20.92" departSpeed="0.00" departDelay="0.00" arrival="87.00" arrivalLane="-gneE0.56_0" arrivalPos="51.00" arrivalSpeed="15.39" duration="9.00" routeLength="68.68" waitingTime="0.00" waitingCount="0" stopTime="0.00" timeLoss="4.01" rerouteNo="0" devices="tripinfo_19" vType="DEFAULT_VEHTYPE" speedFactor="1.16" vaporized=""/>
    <tripinfo id="15" depart="64.00" departLane="a2b2_0" departPos="13.49" departSpeed="0.00" departDelay="0.00" arrival="92.00" arrivalLane="-gneE0.56_0" arrivalPos="51.00" arrivalSpeed="12.02" duration="28.00" routeLength="285.47" waitingTime="0.00" waitingCount="0" stopTime="0.00" timeLoss="4.47" rerouteNo="0" devices="tripinfo_15" vType="DEFAULT_VEHTYPE" speedFactor="0.93" vaporized=""/>
    <tripinfo id="18" depart="77.00" departLane="me_0" departPos="25.50" departSpeed="0.00" departDelay="0.00" arrival="95.00" arrivalLane="-gneE0.56_0" arrivalPos="51.00" arrivalSpeed="12.46" duration="18.00" routeLength="162.66" waitingTime="0.00" waitingCount="0" stopTime="0.00" timeLoss="4.36" rerouteNo="0" devices="tripinfo_18" vType="DEFAULT_VEHTYPE" speedFactor="0.94" vaporized=""/>
    <tripinfo id="7" depart="35.00" departLane="b1b2_0" departPos="12.62" departSpeed="0.00" departDelay="0.00" arrival="101.00" arrivalLane="b2b3.50_0" arrivalPos="51.00" arrivalSpeed="11.43" duration="66.00" routeLength="188.07" waitingTime="42.00" waitingCount="1" stopTime="0.00" timeLoss="50.38" rerouteNo="0" devices="tripinfo_7" vType="DEFAULT_VEHTYPE" speedFactor="0.89" vaporized=""/>
    <tripinfo id="11" depart="47.00" departLane="gneE1.50_0" departPos="20.59" departSpeed="0.00" departDelay="0.00" arrival="101.00" arrivalLane="-gneE0.56_0" arrivalPos="51.00" arrivalSpeed="13.02" duration="54.00" routeLength="120.70" waitingTime="38.00" waitingCount="1" stopTime="0.00" timeLoss="44.81" rerouteNo="0" devices="tripinfo_11" vType="DEFAULT_VEHTYPE" speedFactor="1.03" vaporized=""/>
    <tripinfo id="14" depart="58.00" departLane="b3b2.49_0" departPos="17.33" departSpeed="0.00" departDelay="0.00" arrival="101.00" arrivalLane="b2b1.45_0" arrivalPos="51.00" arrivalSpeed="13.65" duration="43.00" routeLength="123.96" waitingTime="27.00" waitingCount="1" stopTime="0.00" timeLoss="33.19" rerouteNo="0" devices="tripinfo_14" vType="DEFAULT_VEHTYPE" speedFactor="0.99" vaporized=""/>
    <tripinfo id="13" depart="55.00" departLane="gneE0.43_0" departPos="13.83" departSpeed="0.00" departDelay="0.00" arrival="104.00" arrivalLane="gneE2.50_0" arrivalPos="51.00" arrivalSpeed="15.00" duration="49.00" routeLength="125.73" waitingTime="28.00" waitingCount="1" stopTime="0.00" timeLoss="39.97" rerouteNo="0" devices="tripinfo_13" vType="DEFAULT_VEHTYPE" speedFactor="1.12" vaporized=""/>
    <tripinfo id="21" depart="93.00" departLane="b1b2_0" departPos="26.16" departSpeed="0.00" departDelay="0.00" arrival="110.00" arrivalLane="b2b3.50_0" arrivalPos="51.00" arrivalSpeed="12.82" duration="17.00" routeLength="174.53" waitingTime="0.00" waitingCount="0" stopTime="0.00" timeLoss="3.75" rerouteNo="0" devices="tripinfo_21" vType="DEFAULT_VEHTYPE" speedFactor="1.01" vaporized=""/>
    <tripinfo id="24" depart="108.00" departLane="gneE2_0" departPos="28.73" departSpeed="0.00" departDelay="0.00" arrival="117.00" arrivalLane="gneE2.50_0" arrivalPos="51.00" arrivalSpeed="11.21" duration="9.00" routeLength="60.87" waitingTime="0.00" waitingCount="0" stopTime="0.00" timeLoss="2.80" rerouteNo="0" devices="tripinfo_24" vType="DEFAULT_VEHTYPE" speedFactor="0.83" vaporized=""/>
    <tripinfo id="26" depart="114.00" departLane="-gneE1_0" departPos="27.16" departSpeed="0.00" departDelay="0.00" arrival="123.00" arrivalLane="-gneE1.49_0" arrivalPos="51.00" arrivalSpeed="12.56" duration="9.00" routeLength="62.44" waitingTime="0.00" waitingCount="0" stopTime="0.00" timeLoss="3.31" rerouteNo="0" devices="tripinfo_26" vType="DEFAULT_VEHTYPE" speedFactor="0.92" vaporized=""/>
    <tripinfo id="25" depart="112.00" departLane="b3b2_0" departPos="42.04" departSpeed="0.00" departDelay="0.00" arrival="130.00" arrivalLane="b2a2.56_0" arrivalPos="51.00" arrivalSpeed="12.11" duration="18.00" routeLength="156.92" waitingTime="0.00" waitingCount="0" stopTime="0.00" timeLoss="4.03" rerouteNo="0" devices="tripinfo_25" vType="DEFAULT_VEHTYPE" speedFactor="0.87" vaporized=""/>
    <tripinfo id="20" depart="81.00" departLane="em_0" departPos="3.66" departSpeed="0.00" departDelay="0.00" arrival="145.00" arrivalLane="b2a2.56_0" arrivalPos="51.00" arrivalSpeed="13.41" duration="64.00" routeLength="186.23" waitingTime="42.00" waitingCount="1" stopTime="0.00" timeLoss="50.80" rerouteNo="0" devices="tripinfo_20" vType="DEFAULT_VEHTYPE" speedFactor="1.02" vaporized=""/>
    <tripinfo id="29" depart="135.00" departLane="-gneE1_0" departPos="7.24" departSpeed="0.00" departDelay="0.00" arrival="145.00" arrivalLane="-gneE1.49_0" arrivalPos="51.00" arrivalSpeed="12.39" duration="10.00" routeLength="82.36" waitingTime="0.00" waitingCount="0" stopTime="0.00" timeLoss="2.87" rerouteNo="0" devices="tripinfo_29" vType="DEFAULT_VEHTYPE" speedFactor="0.93" vaporized=""/>
    <tripinfo id="22" depart="98.00" departLane="em_0" departPos="24.32" departSpeed="0.00" departDelay="0.00" arrival="146.00" arrivalLane="b2a2_0" arrivalPos="30.60" arrivalSpeed="12.56" duration="48.00" routeLength="106.57" waitingTime="29.00" waitingCount="1" stopTime="0.00" timeLoss="39.61" rerouteNo="0" devices="tripinfo_22" vType="DEFAULT_VEHTYPE" speedFactor="0.98" vaporized=""/>
    <tripinfo id="5" depart="25.00" departLane="gneE0_0" departPos="2.22" departSpeed="0.00" departDelay="0.00" arrival="149.00" arrivalLane="b2a2.56_0" arrivalPos="51.00" arrivalSpeed="10.65" duration="124.00" routeLength="286.70" waitingTime="83.00" waitingCount="2" stopTime="0.00" timeLoss="98.18" rerouteNo="0" devices="tripinfo_5" vType="DEFAULT_VEHTYPE" speedFactor="0.83" vaporized=""/>
    <tripinfo id="27" depart="125.00" departLane="-gneE2.49_0" departPos="12.14" departSpeed="0.00" departDelay="0.00" arrival="154.00" arrivalLane="b2a2_0" arrivalPos="30.60" arrivalSpeed="12.93" duration="29.00" routeLength="170.15" waitingTime="6.00" waitingCount="1" stopTime="0.00" timeLoss="15.42" rerouteNo="0" devices="tripinfo_27" vType="DEFAULT_VEHTYPE" speedFactor="0.95" vaporized=""/>
    <tripinfo id="32" depart="148.00" departLane="b2b1_0" departPos="23.39" departSpeed="0.00" departDelay="0.00" arrival="157.00" arrivalLane="b2b1.45_0" arrivalPos="51.00" arrivalSpeed="13.90" duration="9.00" routeLength="66.21" waitingTime="0.00" waitingCount="0" stopTime="0.00" timeLoss="3.60" rerouteNo="0" devices="tripinfo_32" vType="DEFAULT_VEHTYPE" speedFactor="1.01" vaporized=""/>
    <tripinfo id="23" depart="107.00" departLane="-gneE2.49_0" departPos="19.38" departSpeed="0.00" departDelay="0.00" arrival="159.00" arrivalLane="b2b1.45_0" arrivalPos="51.00" arrivalSpeed="12.00" duration="52.00" routeLength="212.55" waitingTime="23.00" waitingCount="1" stopTime="0.00" timeLoss="33.34" rerouteNo="0" devices="tripinfo_23" vType="DEFAULT_VEHTYPE" speedFactor="0.89" vaporized=""/>
    <tripinfo id="33" depart="152.00" departLane="b2b1_0" departPos="4.87" departSpeed="0.00" departDelay="0.00" arrival="161.00" arrivalLane="b2b1.45_0" arrivalPos="51.00" arrivalSpeed="15.52" duration="9.00" routeLength="84.73" waitingTime="0.00" waitingCount="0" stopTime="0.00" timeLoss="3.34" rerouteNo="0" devices="tripinfo_33" vType="DEFAULT_VEHTYPE" speedFactor="1.17" vaporized=""/>
    <tripinfo id="31" depart="145.00" departLane="-gneE2_0" departPos="15.39" departSpeed="0.00" departDelay="0.00" arrival="163.00" arrivalLane="-gneE0.56_0" arrivalPos="51.00" arrivalSpeed="15.51" duration="18.00" routeLength="175.94" waitingTime="0.00" waitingCount="0" stopTime="0.00" timeLoss="5.92" rerouteNo="0" devices="tripinfo_31" vType="DEFAULT_VEHTYPE" speedFactor="1.15" vaporized=""/>
    <tripinfo id="28" depart="126.00" departLane="a2b2_0" departPos="27.76" departSpeed="0.00" departDelay="0.00" arrival="164.00" arrivalLane="b2b1.45_0" arrivalPos="51.00" arrivalSpeed="14.97" duration="38.00" routeLength="171.20" waitingTime="13.00" waitingCount="1" stopTime="0.00" timeLoss="25.46" rerouteNo="0" devices="tripinfo_28" vType="DEFAULT_VEHTYPE" speedFactor="1.13" vaporized=""/>
    <tripinfo id="30" depart="138.00" departLane="b3b2_0" departPos="1.65" departSpeed="0.00" departDelay="0.00" arrival="190.00" arrivalLane="b2b1.45_0" arrivalPos="51.00" arrivalSpeed="15.94" duration="52.00" routeLength="199.04" waitingTime="29.00" waitingCount="1" stopTime="0.00" timeLoss="39.68" rerouteNo="0" devices="tripinfo_30" vType="DEFAULT_VEHTYPE" speedFactor="1.18" vaporized=""/>
    <tripinfo id="35" depart="166.00" departLane="b1b2.54_0" departPos="0.91" departSpeed="0.00" departDelay="0.00" arrival="190.00" arrivalLane="b2a2.56_0" arrivalPos="51.00" arrivalSpeed="13.34" duration="24.00" routeLength="131.02" waitingTime="6.00" waitingCount="1" stopTime="0.00" timeLoss="14.17" rerouteNo="0" devices="tripinfo_35" vType="DEFAULT_VEHTYPE" speedFactor="1.02" vaporized=""/>
    <tripinfo id="36" depart="177.00" departLane="b3b2.49_0" departPos="20.96" departSpeed="0.00" departDelay="0.00" arrival="193.00" arrivalLane="b2b1.45_0" arrivalPos="51.00" arrivalSpeed="13.10" duration="16.00" routeLength="120.33" waitingTime="1.00" waitingCount="1" stopTime="0.00" timeLoss="6.64" rerouteNo="0" devices="tripinfo_36" vType="DEFAULT_VEHTYPE" speedFactor="0.97" vaporized=""/>
    <tripinfo id="37" depart="178.00" departLane="gneE0_0" departPos="16.90" departSpeed="0.00" departDelay="0.00" arrival="194.00" arrivalLane="-gneE1.49_0" arrivalPos="51.00" arrivalSpeed="16.31" duration="16.00" routeLength="183.79" waitingTime="0.00" waitingCount="0" stopTime="0.00" timeLoss="4.00" rerouteNo="0" devices="tripinfo_37" vType="DEFAULT_VEHTYPE" speedFactor="1.18" vaporized=""/>
    <tripinfo id="40" depart="210.00" departLane="b2b3_0" departPos="29.52" departSpeed="0.00" departDelay="0.00" arrival="218.00" arrivalLane="b2b3.50_0" arrivalPos="51.00" arrivalSpeed="13.47" duration="8.00" routeLength="60.08" waitingTime="0.00" waitingCount="0" stopTime="0.00" timeLoss="3.17" rerouteNo="0" devices="tripinfo_40" vType="DEFAULT_VEHTYPE" speedFactor="1.03" vaporized=""/>
    <tripinfo id="41" depart="211.00" departLane="-gneE1_0" departPos="8.08" departSpeed="0.00" departDelay="0.00" arrival="220.00" arrivalLane="-gneE1.49_0" arrivalPos="51.00" arrivalSpeed="13.16" duration="9.00" routeLength="81.52" waitingTime="0.00" waitingCount="0" stopTime="0.00" timeLoss="2.86" rerouteNo="0" devices="tripinfo_41" vType="DEFAULT_VEHTYPE" speedFactor="0.96" vaporized=""/>
    <tripinfo id="38" depart="187.00" departLane="em_0" departPos="9.93" departSpeed="0.00" departDelay="1.00" arrival="235.00" arrivalLane="b2b1.45_0" arrivalPos="51.00" arrivalSpeed="14.35" duration="48.00" routeLength="170.60" waitingTime="26.00" waitingCount="1" stopTime="0.00" timeLoss="35.56" rerouteNo="0" devices="tripinfo_38" vType="DEFAULT_VEHTYPE" speedFactor="1.10" vaporized=""/>
    <tripinfo id="42" depart="213.00" departLane="a2b2.43_0" departPos="6.83" departSpeed="0.00" departDelay="0.00" arrival="235.00" arrivalLane="b2b3.50_0" arrivalPos="51.00" arrivalSpeed="13.99" duration="22.00" routeLength="125.10" waitingTime="4.00" waitingCount="1" stopTime="0.00" timeLoss="12.70" rerouteNo="0" devices="tripinfo_42" vType="DEFAULT_VEHTYPE" speedFactor="1.09" vaporized=""/>
    <tripinfo id="39" depart="191.00" departLane="-gneE2.49_0" departPos="12.59" departSpeed="0.00" departDelay="0.00" arrival="238.00" arrivalLane="-gneE0.56_0" arrivalPos="51.00" arrivalSpeed="11.28" duration="47.00" routeLength="119.34" waitingTime="29.00" waitingCount="1" stopTime="0.00" timeLoss="36.08" rerouteNo="0" devices="tripinfo_39" vType="DEFAULT_VEHTYPE" speedFactor="0.90" vaporized=""/>
    <tripinfo id="34" depart="164.00" departLane="-gneE2_0" departPos="48.79" departSpeed="0.00" departDelay="0.00" arrival="245.00" arrivalLane="b2b3.50_0" arrivalPos="51.00" arrivalSpeed="13.34" duration="81.00" routeLength="250.17" waitingTime="51.00" waitingCount="1" stopTime="0.00" timeLoss="61.52" rerouteNo="0" devices="tripinfo_34" vType="DEFAULT_VEHTYPE" speedFactor="0.99" vaporized=""/>
    <tripinfo id="45" depart="235.00" departLane="em_0" departPos="19.12" departSpeed="0.00" departDelay="0.00" arrival="251.00" arrivalLane="b2a2.56_0" arrivalPos="51.00" arrivalSpeed="14.60" duration="16.00" routeLength="170.77" waitingTime="0.00" waitingCount="0" stopTime="0.00" timeLoss="4.43" rerouteNo="0" devices="tripinfo_45" vType="DEFAULT_VEHTYPE" speedFactor="1.09" vaporized=""/>
    <tripinfo id="46" depart="240.00" departLane="me_0" departPos="64.29" departSpeed="0.00" departDelay="0.00" arrival="253.00" arrivalLane="gneE2.50_0" arrivalPos="51.00" arrivalSpeed="13.85" duration="13.00" routeLength="125.60" waitingTime="0.00" waitingCount="0" stopTime="0.00" timeLoss="3.60" rerouteNo="0" devices="tripinfo_46" vType="DEFAULT_VEHTYPE" speedFactor="1.00" vaporized=""/>
    <tripinfo id="48" depart="250.00" departLane="-gneE1_0" departPos="20.44" departSpeed="0.00" departDelay="0.00" arrival="258.00" arrivalLane="-gneE1.49_0" arrivalPos="51.00" arrivalSpeed="11.71" duration="8.00" routeLength="69.16" waitingTime="0.00" waitingCount="0" stopTime="0.00" timeLoss="2.27" rerouteNo="0" devices="tripinfo_48" vType="DEFAULT_VEHTYPE" speedFactor="0.88" vaporized=""/>
    <tripinfo id="50" depart="260.00" departLane="b2a2_0" departPos="15.07" departSpeed="0.00" departDelay="0.00" arrival="269.00" arrivalLane="b2a2.56_0" arrivalPos="51.00" arrivalSpeed="10.88" duration="9.00" routeLength="74.53" waitingTime="0.00" waitingCount="0" stopTime="0.00" timeLoss="2.60" rerouteNo="0" devices="tripinfo_50" vType="DEFAULT_VEHTYPE" speedFactor="0.85" vaporized=""/>
    <tripinfo id="47" depart="249.00" departLane="gneE1.50_0" departPos="2.72" departSpeed="0.00" departDelay="0.00" arrival="276.00" arrivalLane="gneE2_0" arrivalPos="30.60" arrivalSpeed="11.35" duration="27.00" routeLength="70.21" waitingTime="13.00" waitingCount="1" stopTime="0.00" timeLoss="20.51" rerouteNo="0" devices="tripinfo_47" vType="DEFAULT_VEHTYPE" speedFactor="0.90" vaporized=""/>
    <tripinfo id="43" depart="214.00" departLane="b1b2_0" departPos="8.57" departSpeed="0.00" departDelay="0.00" arrival="280.00" arrivalLane="b2b3.50_0" arrivalPos="51.00" arrivalSpeed="13.91" duration="66.00" routeLength="192.12" waitingTime="44.00" waitingCount="1" stopTime="0.00" timeLoss="52.64" rerouteNo="0" devices="tripinfo_43" vType="DEFAULT_VEHTYPE" speedFactor="1.04" vaporized=""/>
    <tripinfo id="44" depart="230.00" departLane="b1b2.54_0" departPos="17.49" departSpeed="0.00" departDelay="0.00" arrival="282.00" arrivalLane="b2b3.50_0" arrivalPos="51.00" arrivalSpeed="13.59" duration="52.00" routeLength="123.80" waitingTime="36.00" waitingCount="1" stopTime="0.00" timeLoss="43.36" rerouteNo="0" devices="tripinfo_44" vType="DEFAULT_VEHTYPE" speedFactor="1.04" vaporized=""/>
    <tripinfo id="49" depart="258.00" departLane="b1b2.54_0" departPos="9.42" departSpeed="0.00" departDelay="5.00" arrival="285.00" arrivalLane="b2b3.50_0" arrivalPos="51.00" arrivalSpeed="11.59" duration="27.00" routeLength="131.87" waitingTime="9.00" waitingCount="1" stopTime="0.00" timeLoss="15.84" rerouteNo="0" devices="tripinfo_49" vType="DEFAULT_VEHTYPE" speedFactor="0.85" vaporized=""/>
    <tripinfo id="51" depart="273.00" departLane="gneE1.50_0" departPos="17.75" departSpeed="0.00" departDelay="0.00" arrival="285.00" arrivalLane="-gneE0.56_0" arrivalPos="51.00" arrivalSpeed="15.81" duration="12.00" routeLength="123.54" waitingTime="0.00" waitingCount="0" stopTime="0.00" timeLoss="3.60" rerouteNo="0" devices="tripinfo_51" vType="DEFAULT_VEHTYPE" speedFactor="1.17" vaporized=""/>
    <tripinfo id="53" depart="277.00" departLane="gneE0_0" departPos="48.70" departSpeed="0.00" departDelay="0.00" arrival="293.00" arrivalLane="gneE2.50_0" arrivalPos="51.00" arrivalSpeed="14.05" duration="16.00" routeLength="150.26" waitingTime="0.00" waitingCount="0" stopTime="0.00" timeLoss="4.92" rerouteNo="0" devices="tripinfo_53" vType="DEFAULT_VEHTYPE" speedFactor="1.10" vaporized=""/>
    <tripinfo id="54" depart="283.00" departLane="gneE0_0" departPos="9.35" departSpeed="0.00" departDelay="0.00" arrival="301.00" arrivalLane="-gneE1.49_0" arrivalPos="51.00" arrivalSpeed="12.95" duration="18.00" routeLength="191.34" waitingTime="0.00" waitingCount="0" stopTime="0.00" timeLoss="3.56" rerouteNo="0" devices="tripinfo_54" vType="DEFAULT_VEHTYPE" speedFactor="1.00" vaporized=""/>
    <tripinfo id="58" depart="326.00" departLane="em_0" departPos="22.08" departSpeed="0.00" departDelay="0.00" arrival="333.00" arrivalLane="em_0" arrivalPos="79.20" arrivalSpeed="13.33" duration="7.00" routeLength="57.12" waitingTime="0.00" waitingCount="0" stopTime="0.00" timeLoss="2.96" rerouteNo="0" devices="tripinfo_58" vType="DEFAULT_VEHTYPE" speedFactor="1.02" vaporized=""/>
    <tripinfo id="52" depart="276.00" departLane="-gneE2.49_0" departPos="5.15" departSpeed="0.00" departDelay="0.00" arrival="334.00" arrivalLane="b2a2.56_0" arrivalPos="51.00" arrivalSpeed="13.96" duration="58.00" routeLength="236.14" waitingTime="31.00" waitingCount="1" stopTime="0.00" timeLoss="40.51" rerouteNo="0" devices="tripinfo_52" vType="DEFAULT_VEHTYPE" speedFactor="1.02" vaporized=""/>
    <tripinfo id="55" depart="295.00" departLane="-gneE2.49_0" departPos="19.63" departSpeed="0.00" departDelay="0.00" arrival="336.00" arrivalLane="b2a2.56_0" arrivalPos="51.00" arrivalSpeed="13.49" duration="41.00" routeLength="221.66" waitingTime="16.00" waitingCount="1" stopTime="0.00" timeLoss="24.27" rerouteNo="0" devices="tripinfo_55" vType="DEFAULT_VEHTYPE" speedFactor="1.00" vaporized=""/>
    <tripinfo id="59" depart="329.00" departLane="b2b1_0" departPos="16.73" departSpeed="0.00" departDelay="0.00" arrival="338.00" arrivalLane="b2b1.45_0" arrivalPos="51.00" arrivalSpeed="12.26" duration="9.00" routeLength="72.87" waitingTime="0.00" waitingCount="0" stopTime="0.00" timeLoss="3.01" rerouteNo="0" devices="tripinfo_59" vType="DEFAULT_VEHTYPE" speedFactor="0.97" vaporized=""/>
    <tripinfo id="60" depart="333.00" departLane="a2b2.43_0" departPos="28.40" departSpeed="0.00" departDelay="0.00" arrival="344.00" arrivalLane="b2b3.50_0" arrivalPos="51.00" arrivalSpeed="13.99" duration="11.00" routeLength="103.53" waitingTime="0.00" waitingCount="0" stopTime="0.00" timeLoss="3.62" rerouteNo="0" devices="tripinfo_60" vType="DEFAULT_VEHTYPE" speedFactor="1.08" vaporized=""/>
    <tripinfo id="61" depart="337.00" departLane="-gneE2.49_0" departPos="2.05" departSpeed="0.00" departDelay="0.00" arrival="351.00" arrivalLane="-gneE0.56_0" arrivalPos="51.00" arrivalSpeed="14.29" duration="14.00" routeLength="129.88" waitingTime="0.00" waitingCount="0" stopTime="0.00" timeLoss="4.59" rerouteNo="0" devices="tripinfo_61" vType="DEFAULT_VEHTYPE" speedFactor="1.12" vaporized=""/>
    <tripinfo id="63" depart="350.00" departLane="gneE1_0" departPos="50.61" departSpeed="0.00" departDelay="0.00" arrival="366.00" arrivalLane="-gneE0_0" arrivalPos="30.60" arrivalSpeed="12.49" duration="16.00" routeLength="91.08" waitingTime="2.00" waitingCount="1" stopTime="0.00" timeLoss="9.12" rerouteNo="0" devices="tripinfo_63" vType="DEFAULT_VEHTYPE" speedFactor="0.99" vaporized=""/>
    <tripinfo id="57" depart="311.00" departLane="b3b2.49_0" departPos="0.85" departSpeed="0.00" departDelay="0.00" arrival="371.00" arrivalLane="b2a2.56_0" arrivalPos="51.00" arrivalSpeed="15.56" duration="60.00" routeLength="138.71" waitingTime="41.00" waitingCount="1" stopTime="0.00" timeLoss="50.07" rerouteNo="0" devices="tripinfo_57" vType="DEFAULT_VEHTYPE" speedFactor="1.14" vaporized=""/>
    <tripinfo id="56" depart="299.00" departLane="gneE0.43_0" departPos="4.65" departSpeed="0.00" departDelay="0.00" arrival="372.00" arrivalLane="-gneE1.49_0" arrivalPos="51.00" arrivalSpeed="12.45" duration="73.00" routeLength="136.64" waitingTime="53.00" waitingCount="1" stopTime="0.00" timeLoss="61.13" rerouteNo="0" devices="tripinfo_56" vType="DEFAULT_VEHTYPE" speedFactor="0.90" vaporized=""/>
    <tripinfo id="62" depart="340.00" departLane="gneE0.43_0" departPos="5.48" departSpeed="0.00" departDelay="0.00" arrival="373.00" arrivalLane="-gneE1.49_0" arrivalPos="51.00" arrivalSpeed="13.15" duration="33.00" routeLength="135.81" waitingTime="15.00" waitingCount="1" stopTime="0.00" timeLoss="23.22" rerouteNo="0" devices="tripinfo_62" vType="DEFAULT_VEHTYPE" speedFactor="1.02" vaporized=""/>
    <tripinfo id="64" depart="359.00" departLane="b3b2_0" departPos="16.01" departSpeed="0.00" departDelay="0.00" arrival="378.00" arrivalLane="b2a2.56_0" arrivalPos="51.00" arrivalSpeed="12.09" duration="19.00" routeLength="182.95" waitingTime="0.00" waitingCount="0" stopTime="0.00" timeLoss="4.10" rerouteNo="0" devices="tripinfo_64" vType="DEFAULT_VEHTYPE" speedFactor="0.94" vaporized=""/>
    <tripinfo id="67" depart="373.00" departLane="b3b2.49_0" departPos="17.35" departSpeed="0.00" departDelay="0.00" arrival="387.00" arrivalLane="b2b1.45_0" arrivalPos="51.00" arrivalSpeed="11.50" duration="14.00" routeLength="123.94" waitingTime="0.00" waitingCount="0" stopTime="0.00" timeLoss="3.57" rerouteNo="0" devices="tripinfo_67" vType="DEFAULT_VEHTYPE" speedFactor="0.91" vaporized=""/>
    <tripinfo id="66" depart="369.00" departLane="gneE0_0" departPos="4.39" departSpeed="0.00" departDelay="0.00" arrival="388.00" arrivalLane="-gneE1.49_0" arrivalPos="51.00" arrivalSpeed="12.38" duration="19.00" routeLength="196.30" waitingTime="0.00" waitingCount="0" stopTime="0.00" timeLoss="3.03" rerouteNo="0" devices="tripinfo_66" vType="DEFAULT_VEHTYPE" speedFactor="0.91" vaporized=""/>
    <tripinfo id="68" depart="389.00" departLane="em_0" departPos="16.41" departSpeed="0.00" departDelay="0.00" arrival="397.00" arrivalLane="em_0" arrivalPos="79.20" arrivalSpeed="13.45" duration="8.00" routeLength="62.79" waitingTime="0.00" waitingCount="0" stopTime="0.00" timeLoss="3.06" rerouteNo="0" devices="tripinfo_68" vType="DEFAULT_VEHTYPE" speedFactor="1.04" vaporized=""/>
    <tripinfo id="70" depart="394.00" departLane="-gneE0_0" departPos="1.43" departSpeed="0.00" departDelay="0.00" arrival="404.00" arrivalLane="-gneE0.56_0" arrivalPos="51.00" arrivalSpeed="14.18" duration="10.00" routeLength="88.17" waitingTime="0.00" waitingCount="0" stopTime="0.00" timeLoss="3.08" rerouteNo="0" devices="tripinfo_70" vType="DEFAULT_VEHTYPE" speedFactor="1.02" vaporized=""/>
    <tripinfo id="69" depart="392.00" departLane="b1b2.54_0" departPos="5.53" departSpeed="0.00" departDelay="0.00" arrival="405.00" arrivalLane="me_1" arrivalPos="79.20" arrivalSpeed="14.16" duration="13.00" routeLength="123.63" waitingTime="0.00" waitingCount="0" stopTime="0.00" timeLoss="3.48" rerouteNo="0" devices="tripinfo_69" vType="DEFAULT_VEHTYPE" speedFactor="1.02" vaporized=""/>
    <tripinfo id="71" depart="397.00" departLane="gneE2_0" departPos="2.45" departSpeed="0.00" departDelay="0.00" arrival="407.00" arrivalLane="gneE2.50_0" arrivalPos="51.00" arrivalSpeed="13.05" duration="10.00" routeLength="87.15" waitingTime="0.00" waitingCount="0" stopTime="0.00" timeLoss="3.20" rerouteNo="0" devices="tripinfo_71" vType="DEFAULT_VEHTYPE" speedFactor="0.97" vaporized=""/>
    <tripinfo id="65" depart="362.00" departLane="a2b2.43_0" departPos="10.37" departSpeed="0.00" departDelay="0.00" arrival="416.00" arrivalLane="b2b3.50_0" arrivalPos="51.00" arrivalSpeed="11.32" duration="54.00" routeLength="121.56" waitingTime="37.00" waitingCount="1" stopTime="0.00" timeLoss="43.20" rerouteNo="0" devices="tripinfo_65" vType="DEFAULT_VEHTYPE" speedFactor="0.88" vaporized=""/>