<?xml version="1.0" encoding="UTF-8"?>

<!-- generated on 2021-11-16 11:28:40 by Eclipse SUMO sumo Version 1.10.0
<configuration xmlns:xsi="http://www.w3.org/2001/XMLSchema-instance" xsi:noNamespaceSchemaLocation="http://sumo.dlr.de/xsd/sumoConfiguration.xsd">

    <input>
        <net-file value="C:\Users\Marcus\Desktop\Hauptordner\Studium\Masterstudium\3.%20Semester\Projekt_Sim-Opt\Traffic_Simulation\TwoCross\twoCross.net.xml"/>
        <route-files value="C:\Users\Marcus\Desktop\Hauptordner\Studium\Masterstudium\3.%20Semester\Projekt_Sim-Opt\Traffic_Simulation\TwoCross\twoCrossRoutes.xml"/>
        <additional-files value="C:\Users\Marcus\Desktop\Hauptordner\Studium\Masterstudium\3.%20Semester\Projekt_Sim-Opt\Traffic_Simulation\TwoCross\additionals.xml"/>
    </input>

    <output>
        <tripinfo-output value="tripinfo.xml"/>
        <statistic-output value="statistics.xml"/>
    </output>

    <report>
        <no-step-log value="true"/>
    </report>

    <traci_server>
        <remote-port value="64199"/>
    </traci_server>

</configuration>
-->

<tripinfos xmlns:xsi="http://www.w3.org/2001/XMLSchema-instance" xsi:noNamespaceSchemaLocation="http://sumo.dlr.de/xsd/tripinfo_file.xsd">
    <tripinfo id="0" depart="0.00" departLane="c3c3L_0" departPos="5.10" departSpeed="0.00" departDelay="0.00" arrival="75.00" arrivalLane="c1Lc1_0" arrivalPos="246.00" arrivalSpeed="13.49" duration="75.00" routeLength="995.59" waitingTime="0.00" waitingCount="0" stopTime="0.00" timeLoss="6.59" rerouteNo="0" devices="tripinfo_0" vType="DEFAULT_VEHTYPE" speedFactor="1.06" vaporized=""/>
    <tripinfo id="3" depart="2.00" departLane="b1b1L_0" departPos="5.10" departSpeed="0.00" departDelay="0.00" arrival="75.00" arrivalLane="b3Lb3_0" arrivalPos="246.00" arrivalSpeed="14.53" duration="73.00" routeLength="995.59" waitingTime="0.00" waitingCount="0" stopTime="0.00" timeLoss="6.55" rerouteNo="0" devices="tripinfo_3" vType="DEFAULT_VEHTYPE" speedFactor="1.08" vaporized=""/>
    <tripinfo id="6" depart="3.00" departLane="c3c3L_0" departPos="5.10" departSpeed="0.00" departDelay="0.00" arrival="79.00" arrivalLane="c2Ld2_0" arrivalPos="246.00" arrivalSpeed="14.34" duration="76.00" routeLength="986.23" waitingTime="0.00" waitingCount="0" stopTime="0.00" timeLoss="7.50" rerouteNo="0" devices="tripinfo_6" vType="DEFAULT_VEHTYPE" speedFactor="1.05" vaporized=""/>
    <tripinfo id="18" depart="10.00" departLane="a2a2L_0" departPos="5.10" departSpeed="0.00" departDelay="0.00" arrival="98.00" arrivalLane="b3Lb3_0" arrivalPos="246.00" arrivalSpeed="12.55" duration="88.00" routeLength="986.23" waitingTime="0.00" waitingCount="0" stopTime="0.00" timeLoss="11.11" rerouteNo="0" devices="tripinfo_18" vType="DEFAULT_VEHTYPE" speedFactor="0.94" vaporized=""/>
    <tripinfo id="21" depart="13.00" departLane="a2a2L_0" departPos="5.10" departSpeed="0.00" departDelay="1.00" arrival="100.00" arrivalLane="b3Lb3_0" arrivalPos="246.00" arrivalSpeed="13.58" duration="87.00" routeLength="986.23" waitingTime="0.00" waitingCount="0" stopTime="0.00" timeLoss="15.21" rerouteNo="0" devices="tripinfo_21" vType="DEFAULT_VEHTYPE" speedFactor="1.01" vaporized=""/>
    <tripinfo id="22" depart="16.00" departLane="a2a2L_0" departPos="5.10" departSpeed="0.00" departDelay="4.00" arrival="102.00" arrivalLane="b3Lb3_0" arrivalPos="246.00" arrivalSpeed="12.91" duration="86.00" routeLength="986.23" waitingTime="0.00" waitingCount="0" stopTime="0.00" timeLoss="11.87" rerouteNo="0" devices="tripinfo_22" vType="DEFAULT_VEHTYPE" speedFactor="0.98" vaporized=""/>
    <tripinfo id="45" depart="25.00" departLane="d2c2L_0" departPos="5.10" departSpeed="0.00" departDelay="4.00" arrival="104.00" arrivalLane="c1Lc1_0" arrivalPos="246.00" arrivalSpeed="14.52" duration="79.00" routeLength="986.23" waitingTime="0.00" waitingCount="0" stopTime="0.00" timeLoss="12.24" rerouteNo="0" devices="tripinfo_45" vType="DEFAULT_VEHTYPE" speedFactor="1.09" vaporized=""/>
    <tripinfo id="13" depart="6.00" departLane="c3c3L_0" departPos="5.10" departSpeed="0.00" departDelay="0.00" arrival="115.00" arrivalLane="b1Lb1_0" arrivalPos="246.00" arrivalSpeed="14.91" duration="109.00" routeLength="1484.78" waitingTime="0.00" waitingCount="0" stopTime="0.00" timeLoss="12.07" rerouteNo="0" devices="tripinfo_13" vType="DEFAULT_VEHTYPE" speedFactor="1.12" vaporized=""/>
    <tripinfo id="56" depart="27.00" departLane="a2a2L_0" departPos="5.10" departSpeed="0.00" departDelay="0.00" arrival="117.00" arrivalLane="b3Lb3_0" arrivalPos="246.00" arrivalSpeed="12.06" duration="90.00" routeLength="986.23" waitingTime="0.00" waitingCount="0" stopTime="0.00" timeLoss="9.37" rerouteNo="0" devices="tripinfo_56" vType="DEFAULT_VEHTYPE" speedFactor="0.90" vaporized=""/>
    <tripinfo id="57" depart="30.00" departLane="a2a2L_0" departPos="5.10" departSpeed="0.00" departDelay="3.00" arrival="118.00" arrivalLane="b3Lb3_0" arrivalPos="246.00" arrivalSpeed="13.62" duration="88.00" routeLength="986.23" waitingTime="0.00" waitingCount="0" stopTime="0.00" timeLoss="24.96" rerouteNo="0" devices="tripinfo_57" vType="DEFAULT_VEHTYPE" speedFactor="1.14" vaporized=""/>
    <tripinfo id="86" depart="49.00" departLane="a2a2L_0" departPos="5.10" departSpeed="0.00" departDelay="7.00" arrival="129.00" arrivalLane="b3Lb3_0" arrivalPos="246.00" arrivalSpeed="13.65" duration="80.00" routeLength="986.23" waitingTime="0.00" waitingCount="0" stopTime="0.00" timeLoss="8.32" rerouteNo="0" devices="tripinfo_86" vType="DEFAULT_VEHTYPE" speedFactor="1.00" vaporized=""/>
    <tripinfo id="101" depart="51.00" departLane="d2c2L_0" departPos="5.10" departSpeed="0.00" departDelay="4.00" arrival="134.00" arrivalLane="c1Lc1_0" arrivalPos="246.00" arrivalSpeed="12.28" duration="83.00" routeLength="986.23" waitingTime="0.00" waitingCount="0" stopTime="0.00" timeLoss="7.60" rerouteNo="0" devices="tripinfo_101" vType="DEFAULT_VEHTYPE" speedFactor="0.96" vaporized=""/>
    <tripinfo id="73" depart="37.00" departLane="a2a2L_0" departPos="5.10" departSpeed="0.00" departDelay="0.00" arrival="136.00" arrivalLane="b1Lb1_0" arrivalPos="246.00" arrivalSpeed="14.58" duration="99.00" routeLength="993.85" waitingTime="18.00" waitingCount="1" stopTime="0.00" timeLoss="30.56" rerouteNo="0" devices="tripinfo_73" vType="DEFAULT_VEHTYPE" speedFactor="1.06" vaporized=""/>
    <tripinfo id="43" depart="22.00" departLane="d2c2L_0" departPos="5.10" departSpeed="0.00" departDelay="1.00" arrival="137.00" arrivalLane="c3Lc3_0" arrivalPos="246.00" arrivalSpeed="14.34" duration="115.00" routeLength="993.85" waitingTime="31.00" waitingCount="1" stopTime="0.00" timeLoss="44.83" rerouteNo="0" devices="tripinfo_43" vType="DEFAULT_VEHTYPE" speedFactor="1.04" vaporized=""/>
    <tripinfo id="108" depart="61.00" departLane="a2a2L_0" departPos="5.10" departSpeed="0.00" departDelay="9.00" arrival="138.00" arrivalLane="b1Lb1_0" arrivalPos="246.00" arrivalSpeed="13.50" duration="77.00" routeLength="993.85" waitingTime="0.00" waitingCount="0" stopTime="0.00" timeLoss="8.91" rerouteNo="0" devices="tripinfo_108" vType="DEFAULT_VEHTYPE" speedFactor="1.06" vaporized=""/>
    <tripinfo id="7" depart="3.00" departLane="a2a2L_0" departPos="5.10" departSpeed="0.00" departDelay="0.00" arrival="143.00" arrivalLane="c1Lc1_0" arrivalPos="246.00" arrivalSpeed="11.34" duration="140.00" routeLength="1493.85" waitingTime="2.00" waitingCount="1" stopTime="0.00" timeLoss="17.34" rerouteNo="0" devices="tripinfo_7" vType="DEFAULT_VEHTYPE" speedFactor="0.89" vaporized=""/>
    <tripinfo id="28" depart="14.00" departLane="b3b3L_0" departPos="5.10" departSpeed="0.00" departDelay="0.00" arrival="145.00" arrivalLane="b1Lb1_0" arrivalPos="246.00" arrivalSpeed="15.33" duration="131.00" routeLength="995.59" waitingTime="54.00" waitingCount="1" stopTime="0.00" timeLoss="67.30" rerouteNo="0" devices="tripinfo_28" vType="DEFAULT_VEHTYPE" speedFactor="1.13" vaporized=""/>
    <tripinfo id="48" depart="28.00" departLane="d2c2L_0" departPos="5.10" departSpeed="0.00" departDelay="6.00" arrival="146.00" arrivalLane="c3Lc3_0" arrivalPos="246.00" arrivalSpeed="11.57" duration="118.00" routeLength="993.85" waitingTime="24.00" waitingCount="1" stopTime="0.00" timeLoss="35.41" rerouteNo="0" devices="tripinfo_48" vType="DEFAULT_VEHTYPE" speedFactor="0.88" vaporized=""/>
    <tripinfo id="33" depart="20.00" departLane="b3b3L_0" departPos="5.10" departSpeed="0.00" departDelay="3.00" arrival="147.00" arrivalLane="b1Lb1_0" arrivalPos="246.00" arrivalSpeed="15.14" duration="127.00" routeLength="995.59" waitingTime="51.00" waitingCount="1" stopTime="0.00" timeLoss="65.10" rerouteNo="0" devices="tripinfo_33" vType="DEFAULT_VEHTYPE" speedFactor="1.17" vaporized=""/>
    <tripinfo id="9" depart="6.00" departLane="d2c2L_0" departPos="5.10" departSpeed="0.00" departDelay="2.00" arrival="148.00" arrivalLane="b3Lb3_0" arrivalPos="246.00" arrivalSpeed="11.74" duration="142.00" routeLength="1493.85" waitingTime="0.00" waitingCount="0" stopTime="0.00" timeLoss="15.46" rerouteNo="0" devices="tripinfo_9" vType="DEFAULT_VEHTYPE" speedFactor="0.86" vaporized=""/>
    <tripinfo id="14" depart="9.00" departLane="c3c3L_0" departPos="5.10" departSpeed="0.00" departDelay="3.00" arrival="148.00" arrivalLane="c1Lc1_0" arrivalPos="246.00" arrivalSpeed="13.74" duration="139.00" routeLength="995.59" waitingTime="53.00" waitingCount="1" stopTime="0.00" timeLoss="65.83" rerouteNo="0" devices="tripinfo_14" vType="DEFAULT_VEHTYPE" speedFactor="0.99" vaporized=""/>
    <tripinfo id="65" depart="31.00" departLane="d2c2L_0" departPos="5.10" departSpeed="0.00" departDelay="0.00" arrival="148.00" arrivalLane="c3Lc3_0" arrivalPos="246.00" arrivalSpeed="11.25" duration="117.00" routeLength="993.85" waitingTime="22.00" waitingCount="1" stopTime="0.00" timeLoss="34.92" rerouteNo="0" devices="tripinfo_65" vType="DEFAULT_VEHTYPE" speedFactor="0.88" vaporized=""/>
    <tripinfo id="1" depart="1.00" departLane="c1c1L_0" departPos="5.10" departSpeed="0.00" departDelay="0.00" arrival="150.00" arrivalLane="c3Lc3_0" arrivalPos="246.00" arrivalSpeed="11.88" duration="149.00" routeLength="995.59" waitingTime="59.00" waitingCount="1" stopTime="0.00" timeLoss="72.00" rerouteNo="0" devices="tripinfo_1" vType="DEFAULT_VEHTYPE" speedFactor="0.94" vaporized=""/>
    <tripinfo id="4" depart="5.00" departLane="b1b1L_0" departPos="5.10" departSpeed="0.00" departDelay="2.00" arrival="150.00" arrivalLane="b3Lb3_0" arrivalPos="246.00" arrivalSpeed="13.75" duration="145.00" routeLength="995.59" waitingTime="59.00" waitingCount="1" stopTime="0.00" timeLoss="74.96" rerouteNo="0" devices="tripinfo_4" vType="DEFAULT_VEHTYPE" speedFactor="1.03" vaporized=""/>
    <tripinfo id="29" depart="15.00" departLane="b1b1L_0" departPos="5.10" departSpeed="0.00" departDelay="0.00" arrival="152.00" arrivalLane="b3Lb3_0" arrivalPos="246.00" arrivalSpeed="12.26" duration="137.00" routeLength="995.59" waitingTime="46.00" waitingCount="1" stopTime="0.00" timeLoss="59.53" rerouteNo="0" devices="tripinfo_29" vType="DEFAULT_VEHTYPE" speedFactor="0.93" vaporized=""/>
    <tripinfo id="31" depart="25.00" departLane="c1c1L_0" departPos="5.10" departSpeed="0.00" departDelay="9.00" arrival="152.00" arrivalLane="c3Lc3_0" arrivalPos="246.00" arrivalSpeed="15.92" duration="127.00" routeLength="995.59" waitingTime="47.00" waitingCount="1" stopTime="0.00" timeLoss="63.98" rerouteNo="0" devices="tripinfo_31" vType="DEFAULT_VEHTYPE" speedFactor="1.15" vaporized=""/>
    <tripinfo id="52" depart="23.00" departLane="b1b1L_0" departPos="5.10" departSpeed="0.00" departDelay="0.00" arrival="153.00" arrivalLane="a2La2_0" arrivalPos="246.00" arrivalSpeed="13.87" duration="130.00" routeLength="986.23" waitingTime="43.00" waitingCount="1" stopTime="0.00" timeLoss="58.76" rerouteNo="0" devices="tripinfo_52" vType="DEFAULT_VEHTYPE" speedFactor="1.02" vaporized=""/>
    <tripinfo id="16" depart="12.00" departLane="c3c3L_0" departPos="5.10" departSpeed="0.00" departDelay="4.00" arrival="154.00" arrivalLane="c1Lc1_0" arrivalPos="246.00" arrivalSpeed="11.84" duration="142.00" routeLength="995.59" waitingTime="48.00" waitingCount="1" stopTime="0.00" timeLoss="60.34" rerouteNo="0" devices="tripinfo_16" vType="DEFAULT_VEHTYPE" speedFactor="0.88" vaporized=""/>
    <tripinfo id="17" depart="15.00" departLane="c3c3L_0" departPos="5.10" departSpeed="0.00" departDelay="5.00" arrival="154.00" arrivalLane="c2Ld2_0" arrivalPos="246.00" arrivalSpeed="12.42" duration="139.00" routeLength="986.23" waitingTime="48.00" waitingCount="1" stopTime="0.00" timeLoss="62.23" rerouteNo="0" devices="tripinfo_17" vType="DEFAULT_VEHTYPE" speedFactor="0.94" vaporized=""/>
    <tripinfo id="34" depart="18.00" departLane="b1b1L_0" departPos="5.10" departSpeed="0.00" departDelay="1.00" arrival="154.00" arrivalLane="b3Lb3_0" arrivalPos="246.00" arrivalSpeed="12.58" duration="136.00" routeLength="995.59" waitingTime="45.00" waitingCount="1" stopTime="0.00" timeLoss="63.12" rerouteNo="0" devices="tripinfo_34" vType="DEFAULT_VEHTYPE" speedFactor="0.99" vaporized=""/>
    <tripinfo id="53" depart="26.00" departLane="b1b1L_0" departPos="5.10" departSpeed="0.00" departDelay="1.00" arrival="155.00" arrivalLane="b3Lb3_0" arrivalPos="246.00" arrivalSpeed="14.81" duration="129.00" routeLength="995.59" waitingTime="42.00" waitingCount="1" stopTime="0.00" timeLoss="63.33" rerouteNo="0" devices="tripinfo_53" vType="DEFAULT_VEHTYPE" speedFactor="1.10" vaporized=""/>
    <tripinfo id="54" depart="29.00" departLane="b1b1L_0" departPos="5.10" departSpeed="0.00" departDelay="3.00" arrival="157.00" arrivalLane="b3Lb3_0" arrivalPos="246.00" arrivalSpeed="13.70" duration="128.00" routeLength="995.59" waitingTime="42.00" waitingCount="1" stopTime="0.00" timeLoss="56.22" rerouteNo="0" devices="tripinfo_54" vType="DEFAULT_VEHTYPE" speedFactor="1.00" vaporized=""/>
    <tripinfo id="36" depart="28.00" departLane="c1c1L_0" departPos="5.10" departSpeed="0.00" departDelay="10.00" arrival="158.00" arrivalLane="c3Lc3_0" arrivalPos="246.00" arrivalSpeed="12.23" duration="130.00" routeLength="995.59" waitingTime="42.00" waitingCount="1" stopTime="0.00" timeLoss="56.32" rerouteNo="0" devices="tripinfo_36" vType="DEFAULT_VEHTYPE" speedFactor="0.97" vaporized=""/>
    <tripinfo id="39" depart="22.00" departLane="b3b3L_0" departPos="5.10" departSpeed="0.00" departDelay="3.00" arrival="158.00" arrivalLane="b1Lb1_0" arrivalPos="246.00" arrivalSpeed="11.24" duration="136.00" routeLength="995.59" waitingTime="42.00" waitingCount="1" stopTime="0.00" timeLoss="55.59" rerouteNo="0" devices="tripinfo_39" vType="DEFAULT_VEHTYPE" speedFactor="0.90" vaporized=""/>
    <tripinfo id="25" depart="18.00" departLane="c3c3L_0" departPos="5.10" departSpeed="0.00" departDelay="5.00" arrival="159.00" arrivalLane="c1Lc1_0" arrivalPos="246.00" arrivalSpeed="10.98" duration="141.00" routeLength="995.59" waitingTime="44.00" waitingCount="1" stopTime="0.00" timeLoss="58.54" rerouteNo="0" devices="tripinfo_25" vType="DEFAULT_VEHTYPE" speedFactor="0.87" vaporized=""/>
    <tripinfo id="35" depart="27.00" departLane="c3c3L_0" departPos="5.10" departSpeed="0.00" departDelay="9.00" arrival="159.00" arrivalLane="c2Ld2_0" arrivalPos="246.00" arrivalSpeed="13.29" duration="132.00" routeLength="986.23" waitingTime="43.00" waitingCount="1" stopTime="0.00" timeLoss="61.52" rerouteNo="0" devices="tripinfo_35" vType="DEFAULT_VEHTYPE" speedFactor="1.02" vaporized=""/>
    <tripinfo id="61" depart="32.00" departLane="b1b1L_0" departPos="5.10" departSpeed="0.00" departDelay="3.00" arrival="159.00" arrivalLane="b3Lb3_0" arrivalPos="246.00" arrivalSpeed="14.77" duration="127.00" routeLength="995.59" waitingTime="41.00" waitingCount="1" stopTime="0.00" timeLoss="62.36" rerouteNo="0" devices="tripinfo_61" vType="DEFAULT_VEHTYPE" speedFactor="1.12" vaporized=""/>
    <tripinfo id="68" depart="34.00" departLane="b3b3L_0" departPos="5.10" departSpeed="0.00" departDelay="1.00" arrival="159.00" arrivalLane="b1Lb1_0" arrivalPos="246.00" arrivalSpeed="13.00" duration="125.00" routeLength="995.59" waitingTime="35.00" waitingCount="1" stopTime="0.00" timeLoss="55.90" rerouteNo="0" devices="tripinfo_68" vType="DEFAULT_VEHTYPE" speedFactor="1.04" vaporized=""/>
    <tripinfo id="37" depart="31.00" departLane="c1c1L_0" departPos="5.10" departSpeed="0.00" departDelay="12.00" arrival="160.00" arrivalLane="c3Lc3_0" arrivalPos="246.00" arrivalSpeed="16.27" duration="129.00" routeLength="995.59" waitingTime="42.00" waitingCount="1" stopTime="0.00" timeLoss="67.57" rerouteNo="0" devices="tripinfo_37" vType="DEFAULT_VEHTYPE" speedFactor="1.18" vaporized=""/>
    <tripinfo id="27" depart="21.00" departLane="c3c3L_0" departPos="5.10" departSpeed="0.00" departDelay="7.00" arrival="161.00" arrivalLane="c1Lc1_0" arrivalPos="246.00" arrivalSpeed="13.16" duration="140.00" routeLength="995.59" waitingTime="43.00" waitingCount="1" stopTime="0.00" timeLoss="63.69" rerouteNo="0" devices="tripinfo_27" vType="DEFAULT_VEHTYPE" speedFactor="0.95" vaporized=""/>
    <tripinfo id="38" depart="30.00" departLane="c3c3L_0" departPos="5.10" departSpeed="0.00" departDelay="11.00" arrival="161.00" arrivalLane="c2Ld2_0" arrivalPos="246.00" arrivalSpeed="15.07" duration="131.00" routeLength="986.23" waitingTime="42.00" waitingCount="1" stopTime="0.00" timeLoss="65.01" rerouteNo="0" devices="tripinfo_38" vType="DEFAULT_VEHTYPE" speedFactor="1.10" vaporized=""/>
    <tripinfo id="119" depart="56.00" departLane="b3b3L_0" departPos="5.10" departSpeed="0.00" departDelay="0.00" arrival="161.00" arrivalLane="b1Lb1_0" arrivalPos="246.00" arrivalSpeed="14.29" duration="105.00" routeLength="995.59" waitingTime="19.00" waitingCount="1" stopTime="0.00" timeLoss="37.46" rerouteNo="0" devices="tripinfo_119" vType="DEFAULT_VEHTYPE" speedFactor="1.07" vaporized=""/>
    <tripinfo id="32" depart="24.00" departLane="c3c3L_0" departPos="5.10" departSpeed="0.00" departDelay="8.00" arrival="162.00" arrivalLane="c1Lc1_0" arrivalPos="246.00" arrivalSpeed="13.42" duration="138.00" routeLength="995.59" waitingTime="43.00" waitingCount="1" stopTime="0.00" timeLoss="66.69" rerouteNo="0" devices="tripinfo_32" vType="DEFAULT_VEHTYPE" speedFactor="1.01" vaporized=""/>
    <tripinfo id="157" depart="75.00" departLane="b3b3L_0" departPos="5.10" departSpeed="0.00" departDelay="0.00" arrival="163.00" arrivalLane="b1Lb1_0" arrivalPos="246.00" arrivalSpeed="14.48" duration="88.00" routeLength="995.59" waitingTime="3.00" waitingCount="1" stopTime="0.00" timeLoss="20.91" rerouteNo="0" devices="tripinfo_157" vType="DEFAULT_VEHTYPE" speedFactor="1.08" vaporized=""/>
    <tripinfo id="40" depart="33.00" departLane="c3c3L_0" departPos="5.10" departSpeed="0.00" departDelay="13.00" arrival="164.00" arrivalLane="c1Lc1_0" arrivalPos="246.00" arrivalSpeed="14.06" duration="131.00" routeLength="995.59" waitingTime="41.00" waitingCount="1" stopTime="0.00" timeLoss="61.09" rerouteNo="0" devices="tripinfo_40" vType="DEFAULT_VEHTYPE" speedFactor="1.03" vaporized=""/>
    <tripinfo id="66" depart="35.00" departLane="b1b1L_0" departPos="5.10" departSpeed="0.00" departDelay="4.00" arrival="166.00" arrivalLane="a2La2_0" arrivalPos="246.00" arrivalSpeed="11.75" duration="131.00" routeLength="986.23" waitingTime="37.00" waitingCount="1" stopTime="0.00" timeLoss="51.38" rerouteNo="0" devices="tripinfo_66" vType="DEFAULT_VEHTYPE" speedFactor="0.91" vaporized=""/>
    <tripinfo id="162" depart="81.00" departLane="b3b3L_0" departPos="5.10" departSpeed="0.00" departDelay="4.00" arrival="167.00" arrivalLane="b1Lb1_0" arrivalPos="246.00" arrivalSpeed="13.47" duration="86.00" routeLength="995.59" waitingTime="0.00" waitingCount="0" stopTime="0.00" timeLoss="13.40" rerouteNo="0" devices="tripinfo_162" vType="DEFAULT_VEHTYPE" speedFactor="0.99" vaporized=""/>
    <tripinfo id="41" depart="36.00" departLane="c3c3L_0" departPos="5.10" departSpeed="0.00" departDelay="16.00" arrival="168.00" arrivalLane="c1Lc1_0" arrivalPos="246.00" arrivalSpeed="12.30" duration="132.00" routeLength="995.59" waitingTime="39.00" waitingCount="1" stopTime="0.00" timeLoss="56.43" rerouteNo="0" devices="tripinfo_41" vType="DEFAULT_VEHTYPE" speedFactor="0.96" vaporized=""/>
    <tripinfo id="50" depart="34.00" departLane="c1c1L_0" departPos="5.10" departSpeed="0.00" departDelay="11.00" arrival="168.00" arrivalLane="c3Lc3_0" arrivalPos="246.00" arrivalSpeed="11.48" duration="134.00" routeLength="995.59" waitingTime="33.00" waitingCount="1" stopTime="0.00" timeLoss="49.57" rerouteNo="0" devices="tripinfo_50" vType="DEFAULT_VEHTYPE" speedFactor="0.85" vaporized=""/>
    <tripinfo id="67" depart="38.00" departLane="b1b1L_0" departPos="5.10" departSpeed="0.00" departDelay="6.00" arrival="168.00" arrivalLane="a2La2_0" arrivalPos="246.00" arrivalSpeed="12.47" duration="130.00" routeLength="986.23" waitingTime="35.00" waitingCount="1" stopTime="0.00" timeLoss="51.55" rerouteNo="0" devices="tripinfo_67" vType="DEFAULT_VEHTYPE" speedFactor="0.91" vaporized=""/>
    <tripinfo id="71" depart="41.00" departLane="b1b1L_0" departPos="5.10" departSpeed="0.00" departDelay="8.00" arrival="168.00" arrivalLane="b3Lb3_0" arrivalPos="246.00" arrivalSpeed="12.93" duration="127.00" routeLength="995.59" waitingTime="34.00" waitingCount="1" stopTime="0.00" timeLoss="52.95" rerouteNo="0" devices="tripinfo_71" vType="DEFAULT_VEHTYPE" speedFactor="0.97" vaporized=""/>
    <tripinfo id="46" depart="42.00" departLane="c3c3L_0" departPos="5.10" departSpeed="0.00" departDelay="21.00" arrival="169.00" arrivalLane="c1Lc1_0" arrivalPos="246.00" arrivalSpeed="13.65" duration="127.00" routeLength="995.59" waitingTime="38.00" waitingCount="1" stopTime="0.00" timeLoss="54.97" rerouteNo="0" devices="tripinfo_46" vType="DEFAULT_VEHTYPE" speedFactor="1.00" vaporized=""/>
    <tripinfo id="164" depart="84.00" departLane="b3b3L_0" departPos="5.10" departSpeed="0.00" departDelay="6.00" arrival="169.00" arrivalLane="b1Lb1_0" arrivalPos="246.00" arrivalSpeed="13.52" duration="85.00" routeLength="995.59" waitingTime="0.00" waitingCount="0" stopTime="0.00" timeLoss="16.22" rerouteNo="0" devices="tripinfo_164" vType="DEFAULT_VEHTYPE" speedFactor="1.05" vaporized=""/>
    <tripinfo id="63" depart="41.00" departLane="c1c1L_0" departPos="5.10" departSpeed="0.00" departDelay="11.00" arrival="170.00" arrivalLane="c3Lc3_0" arrivalPos="246.00" arrivalSpeed="13.06" duration="129.00" routeLength="995.59" waitingTime="32.00" waitingCount="1" stopTime="0.00" timeLoss="55.58" rerouteNo="0" devices="tripinfo_63" vType="DEFAULT_VEHTYPE" speedFactor="0.99" vaporized=""/>
    <tripinfo id="75" depart="44.00" departLane="b1b1L_0" departPos="5.10" departSpeed="0.00" departDelay="7.00" arrival="170.00" arrivalLane="a2La2_0" arrivalPos="246.00" arrivalSpeed="13.48" duration="126.00" routeLength="986.23" waitingTime="33.00" waitingCount="1" stopTime="0.00" timeLoss="52.72" rerouteNo="0" devices="tripinfo_75" vType="DEFAULT_VEHTYPE" speedFactor="0.98" vaporized=""/>
    <tripinfo id="79" depart="50.00" departLane="b1b1L_0" departPos="5.10" departSpeed="0.00" departDelay="10.00" arrival="170.00" arrivalLane="b3Lb3_0" arrivalPos="246.00" arrivalSpeed="13.97" duration="120.00" routeLength="995.59" waitingTime="30.00" waitingCount="1" stopTime="0.00" timeLoss="53.33" rerouteNo="0" devices="tripinfo_79" vType="DEFAULT_VEHTYPE" speedFactor="1.09" vaporized=""/>
    <tripinfo id="51" depart="48.00" departLane="c3c3L_0" departPos="5.10" departSpeed="0.00" departDelay="25.00" arrival="171.00" arrivalLane="c1Lc1_0" arrivalPos="246.00" arrivalSpeed="15.18" duration="123.00" routeLength="995.59" waitingTime="32.00" waitingCount="1" stopTime="0.00" timeLoss="61.14" rerouteNo="0" devices="tripinfo_51" vType="DEFAULT_VEHTYPE" speedFactor="1.17" vaporized=""/>
    <tripinfo id="84" depart="53.00" departLane="b1b1L_0" departPos="5.10" departSpeed="0.00" departDelay="12.00" arrival="171.00" arrivalLane="b3Lb3_0" arrivalPos="246.00" arrivalSpeed="14.97" duration="118.00" routeLength="995.59" waitingTime="30.00" waitingCount="1" stopTime="0.00" timeLoss="55.46" rerouteNo="0" devices="tripinfo_84" vType="DEFAULT_VEHTYPE" speedFactor="1.15" vaporized=""/>
    <tripinfo id="100" depart="53.00" departLane="c1c1L_0" departPos="5.10" departSpeed="0.00" departDelay="6.00" arrival="172.00" arrivalLane="c3Lc3_0" arrivalPos="246.00" arrivalSpeed="13.71" duration="119.00" routeLength="995.59" waitingTime="28.00" waitingCount="1" stopTime="0.00" timeLoss="50.86" rerouteNo="0" devices="tripinfo_100" vType="DEFAULT_VEHTYPE" speedFactor="1.07" vaporized=""/>
    <tripinfo id="55" depart="51.00" departLane="c3c3L_0" departPos="5.10" departSpeed="0.00" departDelay="25.00" arrival="173.00" arrivalLane="c1Lc1_0" arrivalPos="246.00" arrivalSpeed="13.65" duration="122.00" routeLength="995.59" waitingTime="31.00" waitingCount="1" stopTime="0.00" timeLoss="49.45" rerouteNo="0" devices="tripinfo_55" vType="DEFAULT_VEHTYPE" speedFactor="1.00" vaporized=""/>
    <tripinfo id="87" depart="56.00" departLane="b1b1L_0" departPos="5.10" departSpeed="0.00" departDelay="14.00" arrival="174.00" arrivalLane="b3Lb3_0" arrivalPos="246.00" arrivalSpeed="14.28" duration="118.00" routeLength="995.59" waitingTime="29.00" waitingCount="1" stopTime="0.00" timeLoss="48.41" rerouteNo="0" devices="tripinfo_87" vType="DEFAULT_VEHTYPE" speedFactor="1.04" vaporized=""/>
    <tripinfo id="58" depart="54.00" departLane="c3c3L_0" departPos="5.10" departSpeed="0.00" departDelay="26.00" arrival="175.00" arrivalLane="c1Lc1_0" arrivalPos="246.00" arrivalSpeed="13.53" duration="121.00" routeLength="995.59" waitingTime="30.00" waitingCount="1" stopTime="0.00" timeLoss="50.09" rerouteNo="0" devices="tripinfo_58" vType="DEFAULT_VEHTYPE" speedFactor="1.02" vaporized=""/>
    <tripinfo id="62" depart="57.00" departLane="c3c3L_0" departPos="5.10" departSpeed="0.00" departDelay="27.00" arrival="175.00" arrivalLane="c2Ld2_0" arrivalPos="246.00" arrivalSpeed="13.67" duration="118.00" routeLength="986.23" waitingTime="30.00" waitingCount="1" stopTime="0.00" timeLoss="47.63" rerouteNo="0" devices="tripinfo_62" vType="DEFAULT_VEHTYPE" speedFactor="1.02" vaporized=""/>
    <tripinfo id="98" depart="59.00" departLane="b1b1L_0" departPos="5.10" departSpeed="0.00" departDelay="12.00" arrival="175.00" arrivalLane="b3Lb3_0" arrivalPos="246.00" arrivalSpeed="14.76" duration="116.00" routeLength="995.59" waitingTime="29.00" waitingCount="1" stopTime="0.00" timeLoss="51.90" rerouteNo="0" devices="tripinfo_98" vType="DEFAULT_VEHTYPE" speedFactor="1.12" vaporized=""/>
    <tripinfo id="192" depart="97.00" departLane="b3b3L_0" departPos="5.10" departSpeed="0.00" departDelay="3.00" arrival="176.00" arrivalLane="b1Lb1_0" arrivalPos="246.00" arrivalSpeed="14.90" duration="79.00" routeLength="995.59" waitingTime="0.00" waitingCount="0" stopTime="0.00" timeLoss="12.72" rerouteNo="0" devices="tripinfo_192" vType="DEFAULT_VEHTYPE" speedFactor="1.10" vaporized=""/>
    <tripinfo id="76" depart="63.00" departLane="c3c3L_0" departPos="5.10" departSpeed="0.00" departDelay="25.00" arrival="177.00" arrivalLane="c1Lc1_0" arrivalPos="246.00" arrivalSpeed="13.47" duration="114.00" routeLength="995.59" waitingTime="27.00" waitingCount="1" stopTime="0.00" timeLoss="44.23" rerouteNo="0" devices="tripinfo_76" vType="DEFAULT_VEHTYPE" speedFactor="1.03" vaporized=""/>
    <tripinfo id="105" depart="65.00" departLane="b1b1L_0" departPos="5.10" departSpeed="0.00" departDelay="16.00" arrival="177.00" arrivalLane="b3Lb3_0" arrivalPos="246.00" arrivalSpeed="14.89" duration="112.00" routeLength="995.59" waitingTime="25.00" waitingCount="1" stopTime="0.00" timeLoss="44.74" rerouteNo="0" devices="tripinfo_105" vType="DEFAULT_VEHTYPE" speedFactor="1.07" vaporized=""/>
    <tripinfo id="193" depart="100.00" departLane="b3b3L_0" departPos="5.10" departSpeed="0.00" departDelay="4.00" arrival="178.00" arrivalLane="b1Lb1_0" arrivalPos="246.00" arrivalSpeed="14.68" duration="78.00" routeLength="995.59" waitingTime="0.00" waitingCount="0" stopTime="0.00" timeLoss="10.75" rerouteNo="0" devices="tripinfo_193" vType="DEFAULT_VEHTYPE" speedFactor="1.07" vaporized=""/>
    <tripinfo id="110" depart="56.00" departLane="c1c1L_0" departPos="5.10" departSpeed="0.00" departDelay="4.00" arrival="179.00" arrivalLane="c3Lc3_0" arrivalPos="246.00" arrivalSpeed="12.83" duration="123.00" routeLength="995.59" waitingTime="28.00" waitingCount="1" stopTime="0.00" timeLoss="44.94" rerouteNo="0" devices="tripinfo_110" vType="DEFAULT_VEHTYPE" speedFactor="0.93" vaporized=""/>
    <tripinfo id="106" depart="68.00" departLane="b1b1L_0" departPos="5.10" departSpeed="0.00" departDelay="18.00" arrival="180.00" arrivalLane="b3Lb3_0" arrivalPos="246.00" arrivalSpeed="12.85" duration="112.00" routeLength="995.59" waitingTime="21.00" waitingCount="1" stopTime="0.00" timeLoss="41.18" rerouteNo="0" devices="tripinfo_106" vType="DEFAULT_VEHTYPE" speedFactor="1.01" vaporized=""/>
    <tripinfo id="138" depart="71.00" departLane="c1c1L_0" departPos="5.10" departSpeed="0.00" departDelay="3.00" arrival="180.00" arrivalLane="c3Lc3_0" arrivalPos="246.00" arrivalSpeed="12.76" duration="109.00" routeLength="995.59" waitingTime="17.00" waitingCount="1" stopTime="0.00" timeLoss="37.57" rerouteNo="0" devices="tripinfo_138" vType="DEFAULT_VEHTYPE" speedFactor="1.00" vaporized=""/>
    <tripinfo id="85" depart="66.00" departLane="c3c3L_0" departPos="5.10" departSpeed="0.00" departDelay="24.00" arrival="181.00" arrivalLane="c1Lc1_0" arrivalPos="246.00" arrivalSpeed="12.55" duration="115.00" routeLength="995.59" waitingTime="24.00" waitingCount="1" stopTime="0.00" timeLoss="41.19" rerouteNo="0" devices="tripinfo_85" vType="DEFAULT_VEHTYPE" speedFactor="0.98" vaporized=""/>