<?xml version="1.0" encoding="UTF-8"?>

<!-- generated on 2021-10-19 16:55:57 by Eclipse SUMO sumo Version 1.10.0
<configuration xmlns:xsi="http://www.w3.org/2001/XMLSchema-instance" xsi:noNamespaceSchemaLocation="http://sumo.dlr.de/xsd/sumoConfiguration.xsd">

    <input>
        <net-file value="C:\Users\Marcus\Desktop\Hauptordner\Studium\Masterstudium\3.%20Semester\Projekt_Sim-Opt\Traffic_Simulation\ZUS_Test\circularControlNet.net.xml"/>
        <route-files value="C:\Users\Marcus\Desktop\Hauptordner\Studium\Masterstudium\3.%20Semester\Projekt_Sim-Opt\Traffic_Simulation\ZUS_Test\circularControlRoutes.xml"/>
        <additional-files value="C:\Users\Marcus\Desktop\Hauptordner\Studium\Masterstudium\3.%20Semester\Projekt_Sim-Opt\Traffic_Simulation\ZUS_Test\additionals.xml"/>
    </input>

    <output>
        <tripinfo-output value="tripinfo.xml"/>
        <statistic-output value="statistics.xml"/>
    </output>

    <report>
        <no-step-log value="true"/>
    </report>

    <traci_server>
        <remote-port value="57157"/>
    </traci_server>

</configuration>
-->

<detector xmlns:xsi="http://www.w3.org/2001/XMLSchema-instance" xsi:noNamespaceSchemaLocation="http://sumo.dlr.de/xsd/det_e1_file.xsd">
    <interval begin="0.00" end="300.00" id="detect" nVehContrib="10" flow="120.00" occupancy="1.26" speed="13.33" harmonicMeanSpeed="13.22" length="5.00" nVehEntered="10"/>
    <interval begin="300.00" end="600.00" id="detect" nVehContrib="13" flow="156.00" occupancy="1.61" speed="13.54" harmonicMeanSpeed="13.47" length="5.00" nVehEntered="13"/>
    <interval begin="600.00" end="900.00" id="detect" nVehContrib="18" flow="216.00" occupancy="2.24" speed="13.61" harmonicMeanSpeed="13.39" length="5.00" nVehEntered="18"/>
    <interval begin="900.00" end="1200.00" id="detect" nVehContrib="11" flow="132.00" occupancy="1.46" speed="12.67" harmonicMeanSpeed="12.57" length="5.00" nVehEntered="11"/>
    <interval begin="1200.00" end="1500.00" id="detect" nVehContrib="13" flow="156.00" occupancy="1.76" speed="12.51" harmonicMeanSpeed="12.33" length="5.00" nVehEntered="13"/>
    <interval begin="1500.00" end="1800.00" id="detect" nVehContrib="13" flow="156.00" occupancy="1.60" speed="13.75" harmonicMeanSpeed="13.58" length="5.00" nVehEntered="13"/>
    <interval begin="1800.00" end="2100.00" id="detect" nVehContrib="17" flow="204.00" occupancy="2.09" speed="13.80" harmonicMeanSpeed="13.58" length="5.00" nVehEntered="17"/>
    <interval begin="2100.00" end="2400.00" id="detect" nVehContrib="15" flow="180.00" occupancy="1.96" speed="12.90" harmonicMeanSpeed="12.79" length="5.00" nVehEntered="15"/>
    <interval begin="2400.00" end="2700.00" id="detect" nVehContrib="19" flow="228.00" occupancy="2.33" speed="13.68" harmonicMeanSpeed="13.62" length="5.00" nVehEntered="19"/>
    <interval begin="2700.00" end="3000.00" id="detect" nVehContrib="11" flow="132.00" occupancy="1.45" speed="12.77" harmonicMeanSpeed="12.65" length="5.00" nVehEntered="11"/>
    <interval begin="3000.00" end="3300.00" id="detect" nVehContrib="19" flow="228.00" occupancy="2.39" speed="13.34" harmonicMeanSpeed="13.27" length="5.00" nVehEntered="19"/>
    <interval begin="3300.00" end="3600.00" id="detect" nVehContrib="11" flow="132.00" occupancy="1.52" speed="12.23" harmonicMeanSpeed="12.06" length="5.00" nVehEntered="11"/>
    <interval begin="3600.00" end="3667.00" id="detect" nVehContrib="3" flow="161.19" occupancy="1.71" speed="13.21" harmonicMeanSpeed="13.07" length="5.00" nVehEntered="3"/>
</detector>
