<?xml version="1.0" encoding="UTF-8"?>

<!-- generated on 2021-10-25 11:42:55 by Eclipse SUMO sumo Version 1.10.0
<configuration xmlns:xsi="http://www.w3.org/2001/XMLSchema-instance" xsi:noNamespaceSchemaLocation="http://sumo.dlr.de/xsd/sumoConfiguration.xsd">

    <input>
        <net-file value="C:\Users\Marcus\Desktop\Hauptordner\Studium\Masterstudium\3.%20Semester\Projekt_Sim-Opt\Traffic_Simulation\ZUS_Test\circularControlNet.net.xml"/>
        <route-files value="C:\Users\Marcus\Desktop\Hauptordner\Studium\Masterstudium\3.%20Semester\Projekt_Sim-Opt\Traffic_Simulation\ZUS_Test\circularControlRoutes.xml"/>
        <additional-files value="C:\Users\Marcus\Desktop\Hauptordner\Studium\Masterstudium\3.%20Semester\Projekt_Sim-Opt\Traffic_Simulation\ZUS_Test\additionals.xml"/>
    </input>

    <output>
        <tripinfo-output value="tripinfo.xml"/>
        <statistic-output value="statistics.xml"/>
    </output>

    <report>
        <no-step-log value="true"/>
    </report>

    <traci_server>
        <remote-port value="58068"/>
    </traci_server>

</configuration>
-->

<tripinfos xmlns:xsi="http://www.w3.org/2001/XMLSchema-instance" xsi:noNamespaceSchemaLocation="http://sumo.dlr.de/xsd/tripinfo_file.xsd">
    <tripinfo id="0" depart="2.00" departLane="sm_0" departPos="5.10" departSpeed="0.00" departDelay="0.00" arrival="19.00" arrivalLane="mn_0" arrivalPos="92.80" arrivalSpeed="13.89" duration="17.00" routeLength="194.90" waitingTime="0.00" waitingCount="0" stopTime="0.00" timeLoss="3.53" rerouteNo="0" devices="tripinfo_0" vType="DEFAULT_VEHTYPE" speedFactor="1.06" vaporized=""/>
    <tripinfo id="3" depart="17.00" departLane="em_0" departPos="5.10" departSpeed="0.00" departDelay="0.00" arrival="36.00" arrivalLane="ms_0" arrivalPos="92.80" arrivalSpeed="14.51" duration="19.00" routeLength="194.69" waitingTime="0.00" waitingCount="0" stopTime="0.00" timeLoss="5.63" rerouteNo="0" devices="tripinfo_3" vType="DEFAULT_VEHTYPE" speedFactor="1.08" vaporized=""/>
    <tripinfo id="1" depart="13.00" departLane="nm_0" departPos="5.10" departSpeed="0.00" departDelay="0.00" arrival="51.00" arrivalLane="ms_0" arrivalPos="92.80" arrivalSpeed="12.92" duration="38.00" routeLength="194.90" waitingTime="13.00" waitingCount="1" stopTime="0.00" timeLoss="22.36" rerouteNo="0" devices="tripinfo_1" vType="DEFAULT_VEHTYPE" speedFactor="0.94" vaporized=""/>
    <tripinfo id="4" depart="23.00" departLane="sm_0" departPos="5.10" departSpeed="0.00" departDelay="0.00" arrival="60.00" arrivalLane="mn_0" arrivalPos="92.80" arrivalSpeed="13.74" duration="37.00" routeLength="194.90" waitingTime="14.00" waitingCount="1" stopTime="0.00" timeLoss="23.20" rerouteNo="0" devices="tripinfo_4" vType="DEFAULT_VEHTYPE" speedFactor="1.03" vaporized=""/>
    <tripinfo id="5" depart="42.00" departLane="wm_0" departPos="5.10" departSpeed="0.00" departDelay="0.00" arrival="66.00" arrivalLane="ms_0" arrivalPos="92.80" arrivalSpeed="10.45" duration="24.00" routeLength="189.53" waitingTime="0.00" waitingCount="0" stopTime="0.00" timeLoss="6.25" rerouteNo="0" devices="tripinfo_5" vType="DEFAULT_VEHTYPE" speedFactor="0.83" vaporized=""/>
    <tripinfo id="2" depart="16.00" departLane="nm_0" departPos="5.10" departSpeed="0.00" departDelay="1.00" arrival="70.00" arrivalLane="mw_0" arrivalPos="92.80" arrivalSpeed="13.20" duration="54.00" routeLength="189.53" waitingTime="28.00" waitingCount="2" stopTime="0.00" timeLoss="39.64" rerouteNo="0" devices="tripinfo_2" vType="DEFAULT_VEHTYPE" speedFactor="1.01" vaporized=""/>
    <tripinfo id="6" depart="47.00" departLane="nm_0" departPos="5.10" departSpeed="0.00" departDelay="0.00" arrival="91.00" arrivalLane="ms_0" arrivalPos="92.80" arrivalSpeed="13.57" duration="44.00" routeLength="194.90" waitingTime="15.00" waitingCount="2" stopTime="0.00" timeLoss="30.34" rerouteNo="0" devices="tripinfo_6" vType="DEFAULT_VEHTYPE" speedFactor="1.05" vaporized=""/>
    <tripinfo id="10" depart="73.00" departLane="sm_0" departPos="5.10" departSpeed="0.00" departDelay="0.00" arrival="100.00" arrivalLane="mn_0" arrivalPos="92.80" arrivalSpeed="14.96" duration="27.00" routeLength="194.90" waitingTime="3.00" waitingCount="1" stopTime="0.00" timeLoss="13.80" rerouteNo="0" devices="tripinfo_10" vType="DEFAULT_VEHTYPE" speedFactor="1.09" vaporized=""/>
    <tripinfo id="7" depart="67.00" departLane="wm_0" departPos="5.10" departSpeed="0.00" departDelay="0.00" arrival="106.00" arrivalLane="ms_0" arrivalPos="92.80" arrivalSpeed="11.63" duration="39.00" routeLength="189.53" waitingTime="15.00" waitingCount="1" stopTime="0.00" timeLoss="22.67" rerouteNo="0" devices="tripinfo_7" vType="DEFAULT_VEHTYPE" speedFactor="0.89" vaporized=""/>
    <tripinfo id="9" depart="71.00" departLane="nm_0" departPos="5.10" departSpeed="0.00" departDelay="0.00" arrival="111.00" arrivalLane="ms_0" arrivalPos="92.80" arrivalSpeed="10.75" duration="40.00" routeLength="194.90" waitingTime="15.00" waitingCount="1" stopTime="0.00" timeLoss="23.45" rerouteNo="0" devices="tripinfo_9" vType="DEFAULT_VEHTYPE" speedFactor="0.86" vaporized=""/>
    <tripinfo id="8" depart="70.00" departLane="wm_0" departPos="5.10" departSpeed="0.00" departDelay="2.00" arrival="126.00" arrivalLane="mn_0" arrivalPos="92.80" arrivalSpeed="12.15" duration="56.00" routeLength="194.69" waitingTime="30.00" waitingCount="2" stopTime="0.00" timeLoss="40.28" rerouteNo="0" devices="tripinfo_8" vType="DEFAULT_VEHTYPE" speedFactor="0.94" vaporized=""/>
    <tripinfo id="13" depart="105.00" departLane="nm_0" departPos="5.10" departSpeed="0.00" departDelay="0.00" arrival="130.00" arrivalLane="ms_0" arrivalPos="92.80" arrivalSpeed="15.49" duration="25.00" routeLength="194.90" waitingTime="2.00" waitingCount="1" stopTime="0.00" timeLoss="11.93" rerouteNo="0" devices="tripinfo_13" vType="DEFAULT_VEHTYPE" speedFactor="1.12" vaporized=""/>
    <tripinfo id="11" depart="79.00" departLane="wm_0" departPos="5.10" departSpeed="0.00" departDelay="0.00" arrival="146.00" arrivalLane="ms_0" arrivalPos="92.80" arrivalSpeed="13.47" duration="67.00" routeLength="189.53" waitingTime="36.00" waitingCount="3" stopTime="0.00" timeLoss="52.33" rerouteNo="0" devices="tripinfo_11" vType="DEFAULT_VEHTYPE" speedFactor="1.03" vaporized=""/>
    <tripinfo id="16" depart="124.00" departLane="nm_0" departPos="5.10" departSpeed="0.00" departDelay="0.00" arrival="152.00" arrivalLane="me_0" arrivalPos="92.80" arrivalSpeed="11.80" duration="28.00" routeLength="194.69" waitingTime="4.00" waitingCount="1" stopTime="0.00" timeLoss="10.50" rerouteNo="0" devices="tripinfo_16" vType="DEFAULT_VEHTYPE" speedFactor="0.88" vaporized=""/>
    <tripinfo id="14" depart="120.00" departLane="em_0" departPos="5.10" departSpeed="0.00" departDelay="0.00" arrival="156.00" arrivalLane="mn_0" arrivalPos="92.80" arrivalSpeed="12.54" duration="36.00" routeLength="189.53" waitingTime="11.00" waitingCount="1" stopTime="0.00" timeLoss="21.04" rerouteNo="0" devices="tripinfo_14" vType="DEFAULT_VEHTYPE" speedFactor="0.99" vaporized=""/>
    <tripinfo id="12" depart="82.00" departLane="wm_0" departPos="5.10" departSpeed="0.00" departDelay="0.00" arrival="165.00" arrivalLane="mn_0" arrivalPos="92.80" arrivalSpeed="14.22" duration="83.00" routeLength="194.69" waitingTime="46.00" waitingCount="4" stopTime="0.00" timeLoss="68.77" rerouteNo="0" devices="tripinfo_12" vType="DEFAULT_VEHTYPE" speedFactor="1.05" vaporized=""/>
    <tripinfo id="21" depart="139.00" departLane="nm_0" departPos="5.10" departSpeed="0.00" departDelay="0.00" arrival="170.00" arrivalLane="ms_0" arrivalPos="92.80" arrivalSpeed="13.80" duration="31.00" routeLength="194.90" waitingTime="8.00" waitingCount="1" stopTime="0.00" timeLoss="16.88" rerouteNo="0" devices="tripinfo_21" vType="DEFAULT_VEHTYPE" speedFactor="1.01" vaporized=""/>
    <tripinfo id="17" depart="125.00" departLane="em_0" departPos="5.10" departSpeed="0.00" departDelay="0.00" arrival="176.00" arrivalLane="mw_0" arrivalPos="92.80" arrivalSpeed="12.78" duration="51.00" routeLength="194.90" waitingTime="23.00" waitingCount="2" stopTime="0.00" timeLoss="35.51" rerouteNo="0" devices="tripinfo_17" vType="DEFAULT_VEHTYPE" speedFactor="0.94" vaporized=""/>
    <tripinfo id="15" depart="123.00" departLane="wm_0" departPos="5.10" departSpeed="0.00" departDelay="0.00" arrival="186.00" arrivalLane="me_0" arrivalPos="92.80" arrivalSpeed="11.98" duration="63.00" routeLength="194.90" waitingTime="31.00" waitingCount="3" stopTime="0.00" timeLoss="47.63" rerouteNo="0" devices="tripinfo_15" vType="DEFAULT_VEHTYPE" speedFactor="0.93" vaporized=""/>
    <tripinfo id="22" depart="142.00" departLane="nm_0" departPos="5.10" departSpeed="0.00" departDelay="1.00" arrival="190.00" arrivalLane="mw_0" arrivalPos="92.80" arrivalSpeed="13.06" duration="48.00" routeLength="189.53" waitingTime="21.00" waitingCount="2" stopTime="0.00" timeLoss="33.41" rerouteNo="0" devices="tripinfo_22" vType="DEFAULT_VEHTYPE" speedFactor="0.98" vaporized=""/>
    <tripinfo id="19" depart="136.00" departLane="em_0" departPos="5.10" departSpeed="0.00" departDelay="0.00" arrival="194.00" arrivalLane="ms_0" arrivalPos="92.80" arrivalSpeed="15.69" duration="58.00" routeLength="194.69" waitingTime="31.00" waitingCount="3" stopTime="0.00" timeLoss="45.11" rerouteNo="0" devices="tripinfo_19" vType="DEFAULT_VEHTYPE" speedFactor="1.16" vaporized=""/>
    <tripinfo id="18" depart="130.00" departLane="wm_0" departPos="5.10" departSpeed="0.00" departDelay="0.00" arrival="206.00" arrivalLane="me_0" arrivalPos="92.80" arrivalSpeed="12.33" duration="76.00" routeLength="194.90" waitingTime="43.00" waitingCount="3" stopTime="0.00" timeLoss="60.79" rerouteNo="0" devices="tripinfo_18" vType="DEFAULT_VEHTYPE" speedFactor="0.94" vaporized=""/>
    <tripinfo id="23" depart="147.00" departLane="nm_0" departPos="5.10" departSpeed="0.00" departDelay="0.00" arrival="211.00" arrivalLane="mw_0" arrivalPos="92.80" arrivalSpeed="11.51" duration="64.00" routeLength="189.53" waitingTime="31.00" waitingCount="3" stopTime="0.00" timeLoss="47.36" rerouteNo="0" devices="tripinfo_23" vType="DEFAULT_VEHTYPE" speedFactor="0.89" vaporized=""/>
    <tripinfo id="24" depart="151.00" departLane="em_0" departPos="5.10" departSpeed="0.00" departDelay="0.00" arrival="217.00" arrivalLane="mw_0" arrivalPos="92.80" arrivalSpeed="11.34" duration="66.00" routeLength="194.90" waitingTime="34.00" waitingCount="3" stopTime="0.00" timeLoss="48.51" rerouteNo="0" devices="tripinfo_24" vType="DEFAULT_VEHTYPE" speedFactor="0.83" vaporized=""/>
    <tripinfo id="27" depart="184.00" departLane="sm_0" departPos="5.10" departSpeed="0.00" departDelay="0.00" arrival="220.00" arrivalLane="mn_0" arrivalPos="92.80" arrivalSpeed="13.00" duration="36.00" routeLength="194.90" waitingTime="13.00" waitingCount="1" stopTime="0.00" timeLoss="21.06" rerouteNo="0" devices="tripinfo_27" vType="DEFAULT_VEHTYPE" speedFactor="0.95" vaporized=""/>
    <tripinfo id="20" depart="137.00" departLane="wm_0" departPos="5.10" departSpeed="0.00" departDelay="0.00" arrival="225.00" arrivalLane="ms_0" arrivalPos="92.80" arrivalSpeed="12.95" duration="88.00" routeLength="189.53" waitingTime="54.00" waitingCount="4" stopTime="0.00" timeLoss="73.96" rerouteNo="0" devices="tripinfo_20" vType="DEFAULT_VEHTYPE" speedFactor="1.02" vaporized=""/>
    <tripinfo id="25" depart="154.00" departLane="nm_0" departPos="5.10" departSpeed="0.00" departDelay="0.00" arrival="231.00" arrivalLane="mw_0" arrivalPos="92.80" arrivalSpeed="11.11" duration="77.00" routeLength="189.53" waitingTime="40.00" waitingCount="3" stopTime="0.00" timeLoss="60.56" rerouteNo="0" devices="tripinfo_25" vType="DEFAULT_VEHTYPE" speedFactor="0.87" vaporized=""/>
    <tripinfo id="28" depart="191.00" departLane="em_0" departPos="5.10" departSpeed="0.00" departDelay="0.00" arrival="235.00" arrivalLane="mn_0" arrivalPos="92.80" arrivalSpeed="15.00" duration="44.00" routeLength="189.53" waitingTime="19.00" waitingCount="2" stopTime="0.00" timeLoss="30.90" rerouteNo="0" devices="tripinfo_28" vType="DEFAULT_VEHTYPE" speedFactor="1.13" vaporized=""/>
    <tripinfo id="29" depart="194.00" departLane="sm_0" departPos="5.10" departSpeed="0.00" departDelay="0.00" arrival="241.00" arrivalLane="me_0" arrivalPos="92.80" arrivalSpeed="11.82" duration="47.00" routeLength="189.53" waitingTime="20.00" waitingCount="2" stopTime="0.00" timeLoss="31.40" rerouteNo="0" devices="tripinfo_29" vType="DEFAULT_VEHTYPE" speedFactor="0.93" vaporized=""/>
    <tripinfo id="26" depart="174.00" departLane="wm_0" departPos="5.10" departSpeed="0.00" departDelay="0.00" arrival="246.00" arrivalLane="mn_0" arrivalPos="92.80" arrivalSpeed="12.10" duration="72.00" routeLength="194.69" waitingTime="39.00" waitingCount="3" stopTime="0.00" timeLoss="56.18" rerouteNo="0" devices="tripinfo_26" vType="DEFAULT_VEHTYPE" speedFactor="0.92" vaporized=""/>
    <tripinfo id="32" depart="211.00" departLane="nm_0" departPos="5.10" departSpeed="0.00" departDelay="0.00" arrival="250.00" arrivalLane="mw_0" arrivalPos="92.80" arrivalSpeed="13.84" duration="39.00" routeLength="189.53" waitingTime="16.00" waitingCount="1" stopTime="0.00" timeLoss="24.43" rerouteNo="0" devices="tripinfo_32" vType="DEFAULT_VEHTYPE" speedFactor="1.01" vaporized=""/>
    <tripinfo id="30" depart="196.00" departLane="em_0" departPos="5.10" departSpeed="0.00" departDelay="0.00" arrival="255.00" arrivalLane="mw_0" arrivalPos="92.80" arrivalSpeed="15.43" duration="59.00" routeLength="194.90" waitingTime="28.00" waitingCount="2" stopTime="0.00" timeLoss="46.81" rerouteNo="0" devices="tripinfo_30" vType="DEFAULT_VEHTYPE" speedFactor="1.18" vaporized=""/>
    <tripinfo id="38" depart="247.00" departLane="wm_0" departPos="5.10" departSpeed="0.00" departDelay="0.00" arrival="266.00" arrivalLane="mn_0" arrivalPos="92.80" arrivalSpeed="14.30" duration="19.00" routeLength="194.69" waitingTime="0.00" waitingCount="0" stopTime="0.00" timeLoss="4.60" rerouteNo="0" devices="tripinfo_38" vType="DEFAULT_VEHTYPE" speedFactor="1.10" vaporized=""/>
    <tripinfo id="33" depart="216.00" departLane="nm_0" departPos="5.10" departSpeed="0.00" departDelay="0.00" arrival="270.00" arrivalLane="me_0" arrivalPos="92.80" arrivalSpeed="16.01" duration="54.00" routeLength="194.69" waitingTime="28.00" waitingCount="2" stopTime="0.00" timeLoss="41.27" rerouteNo="0" devices="tripinfo_33" vType="DEFAULT_VEHTYPE" speedFactor="1.17" vaporized=""/>
    <tripinfo id="31" depart="206.00" departLane="em_0" departPos="5.10" departSpeed="0.00" departDelay="0.00" arrival="275.00" arrivalLane="mw_0" arrivalPos="92.80" arrivalSpeed="15.69" duration="69.00" routeLength="194.90" waitingTime="37.00" waitingCount="3" stopTime="0.00" timeLoss="56.31" rerouteNo="0" devices="tripinfo_31" vType="DEFAULT_VEHTYPE" speedFactor="1.15" vaporized=""/>
    <tripinfo id="34" depart="223.00" departLane="nm_0" departPos="5.10" departSpeed="0.00" departDelay="0.00" arrival="290.00" arrivalLane="mw_0" arrivalPos="92.80" arrivalSpeed="12.99" duration="67.00" routeLength="189.53" waitingTime="35.00" waitingCount="3" stopTime="0.00" timeLoss="52.59" rerouteNo="0" devices="tripinfo_34" vType="DEFAULT_VEHTYPE" speedFactor="0.99" vaporized=""/>
    <tripinfo id="35" depart="230.00" departLane="em_0" departPos="5.10" departSpeed="0.00" departDelay="0.00" arrival="296.00" arrivalLane="ms_0" arrivalPos="92.80" arrivalSpeed="13.36" duration="66.00" routeLength="194.69" waitingTime="34.00" waitingCount="3" stopTime="0.00" timeLoss="51.11" rerouteNo="0" devices="tripinfo_35" vType="DEFAULT_VEHTYPE" speedFactor="1.02" vaporized=""/>
    <tripinfo id="41" depart="265.00" departLane="sm_0" departPos="5.10" departSpeed="0.00" departDelay="0.00" arrival="300.00" arrivalLane="me_0" arrivalPos="92.80" arrivalSpeed="12.55" duration="35.00" routeLength="189.53" waitingTime="13.00" waitingCount="1" stopTime="0.00" timeLoss="20.00" rerouteNo="0" devices="tripinfo_41" vType="DEFAULT_VEHTYPE" speedFactor="0.96" vaporized=""/>
    <tripinfo id="37" depart="238.00" departLane="nm_0" departPos="5.10" departSpeed="0.00" departDelay="0.00" arrival="310.00" arrivalLane="ms_0" arrivalPos="92.80" arrivalSpeed="15.40" duration="72.00" routeLength="194.90" waitingTime="41.00" waitingCount="3" stopTime="0.00" timeLoss="59.83" rerouteNo="0" devices="tripinfo_37" vType="DEFAULT_VEHTYPE" speedFactor="1.18" vaporized=""/>
    <tripinfo id="36" depart="234.00" departLane="em_0" departPos="5.10" departSpeed="0.00" departDelay="0.00" arrival="315.00" arrivalLane="mn_0" arrivalPos="92.80" arrivalSpeed="12.61" duration="81.00" routeLength="189.53" waitingTime="47.00" waitingCount="4" stopTime="0.00" timeLoss="66.24" rerouteNo="0" devices="tripinfo_36" vType="DEFAULT_VEHTYPE" speedFactor="0.97" vaporized=""/>
    <tripinfo id="40" depart="254.00" departLane="nm_0" departPos="5.10" departSpeed="0.00" departDelay="0.00" arrival="330.00" arrivalLane="me_0" arrivalPos="92.80" arrivalSpeed="13.50" duration="76.00" routeLength="194.69" waitingTime="41.00" waitingCount="3" stopTime="0.00" timeLoss="61.71" rerouteNo="0" devices="tripinfo_40" vType="DEFAULT_VEHTYPE" speedFactor="1.03" vaporized=""/>
    <tripinfo id="39" depart="249.00" departLane="em_0" departPos="5.10" departSpeed="0.00" departDelay="0.00" arrival="337.00" arrivalLane="ms_0" arrivalPos="92.80" arrivalSpeed="11.95" duration="88.00" routeLength="194.69" waitingTime="48.00" waitingCount="4" stopTime="0.00" timeLoss="71.49" rerouteNo="0" devices="tripinfo_39" vType="DEFAULT_VEHTYPE" speedFactor="0.90" vaporized=""/>
    <tripinfo id="47" depart="311.00" departLane="sm_0" departPos="5.10" departSpeed="0.00" departDelay="0.00" arrival="341.00" arrivalLane="me_0" arrivalPos="92.80" arrivalSpeed="12.02" duration="30.00" routeLength="189.53" waitingTime="6.00" waitingCount="1" stopTime="0.00" timeLoss="13.90" rerouteNo="0" devices="tripinfo_47" vType="DEFAULT_VEHTYPE" speedFactor="0.90" vaporized=""/>
    <tripinfo id="49" depart="316.00" departLane="wm_0" departPos="5.10" departSpeed="0.00" departDelay="0.00" arrival="347.00" arrivalLane="me_0" arrivalPos="92.80" arrivalSpeed="11.65" duration="31.00" routeLength="194.90" waitingTime="5.00" waitingCount="1" stopTime="0.00" timeLoss="13.62" rerouteNo="0" devices="tripinfo_49" vType="DEFAULT_VEHTYPE" speedFactor="0.85" vaporized=""/>
    <tripinfo id="42" depart="267.00" departLane="nm_0" departPos="5.10" departSpeed="0.00" departDelay="0.00" arrival="350.00" arrivalLane="me_0" arrivalPos="92.80" arrivalSpeed="14.60" duration="83.00" routeLength="194.69" waitingTime="46.00" waitingCount="4" stopTime="0.00" timeLoss="69.41" rerouteNo="0" devices="tripinfo_42" vType="DEFAULT_VEHTYPE" speedFactor="1.09" vaporized=""/>
    <tripinfo id="43" depart="273.00" departLane="em_0" departPos="5.10" departSpeed="0.00" departDelay="0.00" arrival="355.00" arrivalLane="ms_0" arrivalPos="92.80" arrivalSpeed="14.00" duration="82.00" routeLength="194.69" waitingTime="45.00" waitingCount="4" stopTime="0.00" timeLoss="67.30" rerouteNo="0" devices="tripinfo_43" vType="DEFAULT_VEHTYPE" speedFactor="1.04" vaporized=""/>
    <tripinfo id="51" depart="326.00" departLane="sm_0" departPos="5.10" departSpeed="0.00" departDelay="0.00" arrival="360.00" arrivalLane="mn_0" arrivalPos="92.80" arrivalSpeed="15.63" duration="34.00" routeLength="194.90" waitingTime="11.00" waitingCount="1" stopTime="0.00" timeLoss="21.76" rerouteNo="0" devices="tripinfo_51" vType="DEFAULT_VEHTYPE" speedFactor="1.17" vaporized=""/>
    <tripinfo id="50" depart="319.00" departLane="wm_0" departPos="5.10" departSpeed="0.00" departDelay="0.00" arrival="366.00" arrivalLane="me_0" arrivalPos="92.80" arrivalSpeed="11.13" duration="47.00" routeLength="194.90" waitingTime="19.00" waitingCount="2" stopTime="0.00" timeLoss="30.23" rerouteNo="0" devices="tripinfo_50" vType="DEFAULT_VEHTYPE" speedFactor="0.85" vaporized=""/>
    <tripinfo id="46" depart="303.00" departLane="nm_0" departPos="5.10" departSpeed="0.00" departDelay="0.00" arrival="370.00" arrivalLane="mw_0" arrivalPos="92.80" arrivalSpeed="13.51" duration="67.00" routeLength="189.53" waitingTime="37.00" waitingCount="3" stopTime="0.00" timeLoss="52.34" rerouteNo="0" devices="tripinfo_46" vType="DEFAULT_VEHTYPE" speedFactor="1.00" vaporized=""/>
    <tripinfo id="44" depart="287.00" departLane="em_0" departPos="5.10" departSpeed="0.00" departDelay="0.00" arrival="376.00" arrivalLane="mw_0" arrivalPos="92.80" arrivalSpeed="13.69" duration="89.00" routeLength="194.90" waitingTime="48.00" waitingCount="4" stopTime="0.00" timeLoss="74.79" rerouteNo="0" devices="tripinfo_44" vType="DEFAULT_VEHTYPE" speedFactor="1.04" vaporized=""/>
    <tripinfo id="55" depart="347.00" departLane="sm_0" departPos="5.10" departSpeed="0.00" departDelay="0.00" arrival="381.00" arrivalLane="mw_0" arrivalPos="92.80" arrivalSpeed="13.68" duration="34.00" routeLength="194.69" waitingTime="9.00" waitingCount="1" stopTime="0.00" timeLoss="18.72" rerouteNo="0" devices="tripinfo_55" vType="DEFAULT_VEHTYPE" speedFactor="1.00" vaporized=""/>
    <tripinfo id="48" depart="313.00" departLane="nm_0" departPos="5.10" departSpeed="0.00" departDelay="0.00" arrival="392.00" arrivalLane="me_0" arrivalPos="92.80" arrivalSpeed="11.45" duration="79.00" routeLength="194.69" waitingTime="43.00" waitingCount="3" stopTime="0.00" timeLoss="61.71" rerouteNo="0" devices="tripinfo_48" vType="DEFAULT_VEHTYPE" speedFactor="0.88" vaporized=""/>
    <tripinfo id="45" depart="293.00" departLane="em_0" departPos="5.10" departSpeed="0.00" departDelay="0.00" arrival="395.00" arrivalLane="ms_0" arrivalPos="92.80" arrivalSpeed="14.00" duration="102.00" routeLength="194.69" waitingTime="59.00" waitingCount="5" stopTime="0.00" timeLoss="88.13" rerouteNo="0" devices="tripinfo_45" vType="DEFAULT_VEHTYPE" speedFactor="1.09" vaporized=""/>
    <tripinfo id="59" depart="369.00" departLane="sm_0" departPos="5.10" departSpeed="0.00" departDelay="0.00" arrival="400.00" arrivalLane="mn_0" arrivalPos="92.80" arrivalSpeed="13.20" duration="31.00" routeLength="194.90" waitingTime="6.00" waitingCount="1" stopTime="0.00" timeLoss="16.40" rerouteNo="0" devices="tripinfo_59" vType="DEFAULT_VEHTYPE" speedFactor="0.97" vaporized=""/>
    <tripinfo id="58" depart="368.00" departLane="wm_0" departPos="5.10" departSpeed="0.00" departDelay="0.00" arrival="405.00" arrivalLane="ms_0" arrivalPos="92.80" arrivalSpeed="13.55" duration="37.00" routeLength="189.53" waitingTime="15.00" waitingCount="1" stopTime="0.00" timeLoss="22.48" rerouteNo="0" devices="tripinfo_58" vType="DEFAULT_VEHTYPE" speedFactor="1.02" vaporized=""/>
    <tripinfo id="52" depart="327.00" departLane="nm_0" departPos="5.10" departSpeed="0.00" departDelay="0.00" arrival="410.00" arrivalLane="mw_0" arrivalPos="92.80" arrivalSpeed="12.86" duration="83.00" routeLength="189.53" waitingTime="45.00" waitingCount="4" stopTime="0.00" timeLoss="68.77" rerouteNo="0" devices="tripinfo_52" vType="DEFAULT_VEHTYPE" speedFactor="1.02" vaporized=""/>
    <tripinfo id="54" depart="332.00" departLane="em_0" departPos="5.10" departSpeed="0.00" departDelay="0.00" arrival="416.00" arrivalLane="ms_0" arrivalPos="92.80" arrivalSpeed="13.18" duration="84.00" routeLength="194.69" waitingTime="45.00" waitingCount="4" stopTime="0.00" timeLoss="68.95" rerouteNo="0" devices="tripinfo_54" vType="DEFAULT_VEHTYPE" speedFactor="1.00" vaporized=""/>
    <tripinfo id="60" depart="372.00" departLane="sm_0" departPos="5.10" departSpeed="0.00" departDelay="0.00" arrival="420.00" arrivalLane="mw_0" arrivalPos="92.80" arrivalSpeed="13.87" duration="48.00" routeLength="194.69" waitingTime="19.00" waitingCount="2" stopTime="0.00" timeLoss="33.78" rerouteNo="0" devices="tripinfo_60" vType="DEFAULT_VEHTYPE" speedFactor="1.08" vaporized=""/>
    <tripinfo id="61" depart="380.00" departLane="wm_0" departPos="5.10" departSpeed="0.00" departDelay="0.00" arrival="425.00" arrivalLane="me_0" arrivalPos="92.80" arrivalSpeed="14.54" duration="45.00" routeLength="194.90" waitingTime="19.00" waitingCount="2" stopTime="0.00" timeLoss="32.18" rerouteNo="0" devices="tripinfo_61" vType="DEFAULT_VEHTYPE" speedFactor="1.12" vaporized=""/>
    <tripinfo id="53" depart="330.00" departLane="nm_0" departPos="5.10" departSpeed="0.00" departDelay="0.00" arrival="430.00" arrivalLane="ms_0" arrivalPos="92.80" arrivalSpeed="15.14" duration="100.00" routeLength="194.90" waitingTime="55.00" waitingCount="5" stopTime="0.00" timeLoss="86.73" rerouteNo="0" devices="tripinfo_53" vType="DEFAULT_VEHTYPE" speedFactor="1.10" vaporized=""/>
    <tripinfo id="57" depart="352.00" departLane="em_0" departPos="5.10" departSpeed="0.00" departDelay="0.00" arrival="435.00" arrivalLane="mw_0" arrivalPos="92.80" arrivalSpeed="14.91" duration="83.00" routeLength="194.90" waitingTime="43.00" waitingCount="4" stopTime="0.00" timeLoss="70.35" rerouteNo="0" devices="tripinfo_57" vType="DEFAULT_VEHTYPE" speedFactor="1.14" vaporized=""/>
    <tripinfo id="65" depart="392.00" departLane="sm_0" departPos="5.10" departSpeed="0.00" departDelay="0.00" arrival="441.00" arrivalLane="mn_0" arrivalPos="92.80" arrivalSpeed="11.11" duration="49.00" routeLength="194.90" waitingTime="22.00" waitingCount="2" stopTime="0.00" timeLoss="32.81" rerouteNo="0" devices="tripinfo_65" vType="DEFAULT_VEHTYPE" speedFactor="0.88" vaporized=""/>
    <tripinfo id="62" depart="383.00" departLane="wm_0" departPos="5.10" departSpeed="0.00" departDelay="2.00" arrival="445.00" arrivalLane="ms_0" arrivalPos="92.80" arrivalSpeed="12.92" duration="62.00" routeLength="189.53" waitingTime="31.00" waitingCount="3" stopTime="0.00" timeLoss="47.82" rerouteNo="0" devices="tripinfo_62" vType="DEFAULT_VEHTYPE" speedFactor="1.02" vaporized=""/>
    <tripinfo id="56" depart="348.00" departLane="nm_0" departPos="5.10" departSpeed="0.00" departDelay="0.00" arrival="452.00" arrivalLane="me_0" arrivalPos="92.80" arrivalSpeed="12.03" duration="104.00" routeLength="194.69" waitingTime="57.00" waitingCount="5" stopTime="0.00" timeLoss="86.97" rerouteNo="0" devices="tripinfo_56" vType="DEFAULT_VEHTYPE" speedFactor="0.90" vaporized=""/>
    <tripinfo id="66" depart="395.00" departLane="sm_0" departPos="5.10" departSpeed="0.00" departDelay="2.00" arrival="461.00" arrivalLane="me_0" arrivalPos="92.80" arrivalSpeed="11.70" duration="66.00" routeLength="189.53" waitingTime="32.00" waitingCount="3" stopTime="0.00" timeLoss="49.75" rerouteNo="0" devices="tripinfo_66" vType="DEFAULT_VEHTYPE" speedFactor="0.91" vaporized=""/>
    <tripinfo id="64" depart="390.00" departLane="wm_0" departPos="5.10" departSpeed="0.00" departDelay="0.00" arrival="466.00" arrivalLane="me_0" arrivalPos="92.80" arrivalSpeed="12.47" duration="76.00" routeLength="194.90" waitingTime="42.00" waitingCount="3" stopTime="0.00" timeLoss="60.58" rerouteNo="0" devices="tripinfo_64" vType="DEFAULT_VEHTYPE" speedFactor="0.94" vaporized=""/>
    <tripinfo id="63" depart="382.00" departLane="nm_0" departPos="5.10" departSpeed="0.00" departDelay="0.00" arrival="471.00" arrivalLane="me_0" arrivalPos="92.80" arrivalSpeed="13.44" duration="89.00" routeLength="194.69" waitingTime="51.00" waitingCount="4" stopTime="0.00" timeLoss="73.41" rerouteNo="0" devices="tripinfo_63" vType="DEFAULT_VEHTYPE" speedFactor="0.99" vaporized=""/>
    <tripinfo id="75" depart="443.00" departLane="em_0" departPos="5.10" departSpeed="0.00" departDelay="0.00" arrival="476.00" arrivalLane="ms_0" arrivalPos="92.80" arrivalSpeed="12.68" duration="33.00" routeLength="194.69" waitingTime="10.00" waitingCount="1" stopTime="0.00" timeLoss="17.66" rerouteNo="0" devices="tripinfo_75" vType="DEFAULT_VEHTYPE" speedFactor="0.98" vaporized=""/>
    <tripinfo id="67" depart="398.00" departLane="sm_0" departPos="5.10" departSpeed="0.00" departDelay="3.00" arrival="481.00" arrivalLane="me_0" arrivalPos="92.80" arrivalSpeed="11.75" duration="83.00" routeLength="189.53" waitingTime="43.00" waitingCount="4" stopTime="0.00" timeLoss="66.70" rerouteNo="0" devices="tripinfo_67" vType="DEFAULT_VEHTYPE" speedFactor="0.91" vaporized=""/>
    <tripinfo id="68" depart="406.00" departLane="wm_0" departPos="5.10" departSpeed="0.00" departDelay="0.00" arrival="486.00" arrivalLane="mn_0" arrivalPos="92.80" arrivalSpeed="14.14" duration="80.00" routeLength="194.69" waitingTime="44.00" waitingCount="4" stopTime="0.00" timeLoss="65.40" rerouteNo="0" devices="tripinfo_68" vType="DEFAULT_VEHTYPE" speedFactor="1.04" vaporized=""/>
    <tripinfo id="81" depart="460.00" departLane="nm_0" departPos="5.10" departSpeed="0.00" departDelay="0.00" arrival="491.00" arrivalLane="me_0" arrivalPos="92.80" arrivalSpeed="13.61" duration="31.00" routeLength="194.69" waitingTime="7.00" waitingCount="1" stopTime="0.00" timeLoss="15.88" rerouteNo="0" devices="tripinfo_81" vType="DEFAULT_VEHTYPE" speedFactor="1.00" vaporized=""/>
    <tripinfo id="76" depart="446.00" departLane="em_0" departPos="5.10" departSpeed="0.00" departDelay="2.00" arrival="495.00" arrivalLane="mw_0" arrivalPos="92.80" arrivalSpeed="13.86" duration="49.00" routeLength="194.90" waitingTime="21.00" waitingCount="2" stopTime="0.00" timeLoss="35.42" rerouteNo="0" devices="tripinfo_76" vType="DEFAULT_VEHTYPE" speedFactor="1.03" vaporized=""/>
    <tripinfo id="69" depart="409.00" departLane="sm_0" departPos="5.10" departSpeed="0.00" departDelay="0.00" arrival="500.00" arrivalLane="mn_0" arrivalPos="92.80" arrivalSpeed="14.03" duration="91.00" routeLength="194.90" waitingTime="53.00" waitingCount="4" stopTime="0.00" timeLoss="77.21" rerouteNo="0" devices="tripinfo_69" vType="DEFAULT_VEHTYPE" speedFactor="1.02" vaporized=""/>
    <tripinfo id="70" depart="415.00" departLane="wm_0" departPos="5.10" departSpeed="0.00" departDelay="0.00" arrival="505.00" arrivalLane="me_0" arrivalPos="92.80" arrivalSpeed="12.95" duration="90.00" routeLength="194.90" waitingTime="55.00" waitingCount="4" stopTime="0.00" timeLoss="76.07" rerouteNo="0" devices="tripinfo_70" vType="DEFAULT_VEHTYPE" speedFactor="1.02" vaporized=""/>