<?xml version="1.0" encoding="UTF-8"?>

<!-- generated on 2021-10-19 16:55:57 by Eclipse SUMO sumo Version 1.10.0
<configuration xmlns:xsi="http://www.w3.org/2001/XMLSchema-instance" xsi:noNamespaceSchemaLocation="http://sumo.dlr.de/xsd/sumoConfiguration.xsd">

    <input>
        <net-file value="C:\Users\Marcus\Desktop\Hauptordner\Studium\Masterstudium\3.%20Semester\Projekt_Sim-Opt\Traffic_Simulation\ZUS_Test\circularControlNet.net.xml"/>
        <route-files value="C:\Users\Marcus\Desktop\Hauptordner\Studium\Masterstudium\3.%20Semester\Projekt_Sim-Opt\Traffic_Simulation\ZUS_Test\circularControlRoutes.xml"/>
        <additional-files value="C:\Users\Marcus\Desktop\Hauptordner\Studium\Masterstudium\3.%20Semester\Projekt_Sim-Opt\Traffic_Simulation\ZUS_Test\additionals.xml"/>
    </input>

    <output>
        <tripinfo-output value="tripinfo.xml"/>
        <statistic-output value="statistics.xml"/>
    </output>

    <report>
        <no-step-log value="true"/>
    </report>

    <traci_server>
        <remote-port value="57157"/>
    </traci_server>

</configuration>
-->

<tripinfos xmlns:xsi="http://www.w3.org/2001/XMLSchema-instance" xsi:noNamespaceSchemaLocation="http://sumo.dlr.de/xsd/tripinfo_file.xsd">
    <tripinfo id="1" depart="5.00" departLane="nm_0" departPos="5.10" departSpeed="0.00" departDelay="0.00" arrival="26.00" arrivalLane="me_0" arrivalPos="92.80" arrivalSpeed="12.09" duration="21.00" routeLength="194.69" waitingTime="0.00" waitingCount="0" stopTime="0.00" timeLoss="4.79" rerouteNo="0" devices="tripinfo_1" vType="DEFAULT_VEHTYPE" speedFactor="0.94" vaporized=""/>
    <tripinfo id="5" depart="25.00" departLane="em_0" departPos="5.10" departSpeed="0.00" departDelay="0.00" arrival="48.00" arrivalLane="ms_0" arrivalPos="92.80" arrivalSpeed="11.54" duration="23.00" routeLength="194.69" waitingTime="0.00" waitingCount="0" stopTime="0.00" timeLoss="4.97" rerouteNo="0" devices="tripinfo_5" vType="DEFAULT_VEHTYPE" speedFactor="0.83" vaporized=""/>
    <tripinfo id="6" depart="30.00" departLane="em_0" departPos="5.10" departSpeed="0.00" departDelay="0.00" arrival="48.00" arrivalLane="mw_0" arrivalPos="92.80" arrivalSpeed="13.45" duration="18.00" routeLength="194.90" waitingTime="0.00" waitingCount="0" stopTime="0.00" timeLoss="3.82" rerouteNo="0" devices="tripinfo_6" vType="DEFAULT_VEHTYPE" speedFactor="1.05" vaporized=""/>
    <tripinfo id="0" depart="0.00" departLane="sm_0" departPos="5.10" departSpeed="0.00" departDelay="0.00" arrival="56.00" arrivalLane="me_0" arrivalPos="92.80" arrivalSpeed="13.83" duration="56.00" routeLength="189.53" waitingTime="34.00" waitingCount="1" stopTime="0.00" timeLoss="42.39" rerouteNo="0" devices="tripinfo_0" vType="DEFAULT_VEHTYPE" speedFactor="1.06" vaporized=""/>
    <tripinfo id="2" depart="10.00" departLane="sm_0" departPos="5.10" departSpeed="0.00" departDelay="0.00" arrival="59.00" arrivalLane="mw_0" arrivalPos="92.80" arrivalSpeed="12.84" duration="49.00" routeLength="194.69" waitingTime="23.00" waitingCount="1" stopTime="0.00" timeLoss="34.20" rerouteNo="0" devices="tripinfo_2" vType="DEFAULT_VEHTYPE" speedFactor="1.01" vaporized=""/>
    <tripinfo id="7" depart="35.00" departLane="sm_0" departPos="5.10" departSpeed="0.00" departDelay="0.00" arrival="63.00" arrivalLane="me_0" arrivalPos="92.80" arrivalSpeed="11.64" duration="28.00" routeLength="189.53" waitingTime="0.00" waitingCount="0" stopTime="0.00" timeLoss="11.70" rerouteNo="0" devices="tripinfo_7" vType="DEFAULT_VEHTYPE" speedFactor="0.89" vaporized=""/>
    <tripinfo id="3" depart="15.00" departLane="wm_0" departPos="5.10" departSpeed="0.00" departDelay="0.00" arrival="80.00" arrivalLane="me_0" arrivalPos="92.80" arrivalSpeed="14.94" duration="65.00" routeLength="194.90" waitingTime="41.00" waitingCount="1" stopTime="0.00" timeLoss="51.20" rerouteNo="0" devices="tripinfo_3" vType="DEFAULT_VEHTYPE" speedFactor="1.08" vaporized=""/>
    <tripinfo id="9" depart="45.00" departLane="wm_0" departPos="5.10" departSpeed="0.00" departDelay="0.00" arrival="83.00" arrivalLane="me_0" arrivalPos="92.80" arrivalSpeed="10.91" duration="38.00" routeLength="194.90" waitingTime="12.00" waitingCount="1" stopTime="0.00" timeLoss="20.94" rerouteNo="0" devices="tripinfo_9" vType="DEFAULT_VEHTYPE" speedFactor="0.86" vaporized=""/>
    <tripinfo id="10" depart="50.00" departLane="wm_0" departPos="5.10" departSpeed="0.00" departDelay="0.00" arrival="83.00" arrivalLane="ms_0" arrivalPos="92.80" arrivalSpeed="15.03" duration="33.00" routeLength="189.53" waitingTime="9.00" waitingCount="1" stopTime="0.00" timeLoss="19.85" rerouteNo="0" devices="tripinfo_10" vType="DEFAULT_VEHTYPE" speedFactor="1.09" vaporized=""/>
    <tripinfo id="12" depart="60.00" departLane="wm_0" departPos="5.10" departSpeed="0.00" departDelay="0.00" arrival="86.00" arrivalLane="mn_0" arrivalPos="92.80" arrivalSpeed="13.37" duration="26.00" routeLength="194.69" waitingTime="2.00" waitingCount="1" stopTime="0.00" timeLoss="11.78" rerouteNo="0" devices="tripinfo_12" vType="DEFAULT_VEHTYPE" speedFactor="1.05" vaporized=""/>
    <tripinfo id="14" depart="70.00" departLane="wm_0" departPos="5.10" departSpeed="0.00" departDelay="0.00" arrival="90.00" arrivalLane="ms_0" arrivalPos="92.80" arrivalSpeed="12.64" duration="20.00" routeLength="189.53" waitingTime="0.00" waitingCount="0" stopTime="0.00" timeLoss="5.52" rerouteNo="0" devices="tripinfo_14" vType="DEFAULT_VEHTYPE" speedFactor="0.99" vaporized=""/>
    <tripinfo id="15" depart="75.00" departLane="wm_0" departPos="5.10" departSpeed="0.00" departDelay="0.00" arrival="97.00" arrivalLane="ms_0" arrivalPos="92.80" arrivalSpeed="11.72" duration="22.00" routeLength="189.53" waitingTime="0.00" waitingCount="0" stopTime="0.00" timeLoss="5.59" rerouteNo="0" devices="tripinfo_15" vType="DEFAULT_VEHTYPE" speedFactor="0.93" vaporized=""/>
    <tripinfo id="4" depart="20.00" departLane="nm_0" departPos="5.10" departSpeed="0.00" departDelay="0.00" arrival="103.00" arrivalLane="me_0" arrivalPos="92.80" arrivalSpeed="13.55" duration="83.00" routeLength="194.69" waitingTime="59.00" waitingCount="1" stopTime="0.00" timeLoss="68.29" rerouteNo="0" devices="tripinfo_4" vType="DEFAULT_VEHTYPE" speedFactor="1.03" vaporized=""/>
    <tripinfo id="11" depart="55.00" departLane="nm_0" departPos="5.10" departSpeed="0.00" departDelay="0.00" arrival="105.00" arrivalLane="me_0" arrivalPos="92.80" arrivalSpeed="13.51" duration="50.00" routeLength="194.69" waitingTime="25.00" waitingCount="1" stopTime="0.00" timeLoss="35.40" rerouteNo="0" devices="tripinfo_11" vType="DEFAULT_VEHTYPE" speedFactor="1.03" vaporized=""/>
    <tripinfo id="17" depart="85.00" departLane="nm_0" departPos="5.10" departSpeed="0.00" departDelay="0.00" arrival="107.00" arrivalLane="ms_0" arrivalPos="92.80" arrivalSpeed="12.02" duration="22.00" routeLength="194.90" waitingTime="0.00" waitingCount="0" stopTime="0.00" timeLoss="6.46" rerouteNo="0" devices="tripinfo_17" vType="DEFAULT_VEHTYPE" speedFactor="0.94" vaporized=""/>
    <tripinfo id="8" depart="40.00" departLane="em_0" departPos="5.10" departSpeed="0.00" departDelay="0.00" arrival="126.00" arrivalLane="ms_0" arrivalPos="92.80" arrivalSpeed="11.87" duration="86.00" routeLength="194.69" waitingTime="63.00" waitingCount="1" stopTime="0.00" timeLoss="69.99" rerouteNo="0" devices="tripinfo_8" vType="DEFAULT_VEHTYPE" speedFactor="0.94" vaporized=""/>
    <tripinfo id="13" depart="65.00" departLane="em_0" departPos="5.10" departSpeed="0.00" departDelay="0.00" arrival="126.00" arrivalLane="mw_0" arrivalPos="92.80" arrivalSpeed="15.07" duration="61.00" routeLength="194.90" waitingTime="38.00" waitingCount="1" stopTime="0.00" timeLoss="48.43" rerouteNo="0" devices="tripinfo_13" vType="DEFAULT_VEHTYPE" speedFactor="1.12" vaporized=""/>
    <tripinfo id="21" depart="105.00" departLane="em_0" departPos="5.10" departSpeed="0.00" departDelay="0.00" arrival="130.00" arrivalLane="mn_0" arrivalPos="92.80" arrivalSpeed="13.33" duration="25.00" routeLength="189.53" waitingTime="0.00" waitingCount="0" stopTime="0.00" timeLoss="10.52" rerouteNo="0" devices="tripinfo_21" vType="DEFAULT_VEHTYPE" speedFactor="1.01" vaporized=""/>
    <tripinfo id="22" depart="110.00" departLane="em_0" departPos="5.10" departSpeed="0.00" departDelay="0.00" arrival="132.00" arrivalLane="mw_0" arrivalPos="92.80" arrivalSpeed="12.91" duration="22.00" routeLength="194.90" waitingTime="0.00" waitingCount="0" stopTime="0.00" timeLoss="6.72" rerouteNo="0" devices="tripinfo_22" vType="DEFAULT_VEHTYPE" speedFactor="0.98" vaporized=""/>
    <tripinfo id="23" depart="115.00" departLane="em_0" departPos="5.10" departSpeed="0.00" departDelay="0.00" arrival="136.00" arrivalLane="mn_0" arrivalPos="92.80" arrivalSpeed="11.58" duration="21.00" routeLength="189.53" waitingTime="0.00" waitingCount="0" stopTime="0.00" timeLoss="4.84" rerouteNo="0" devices="tripinfo_23" vType="DEFAULT_VEHTYPE" speedFactor="0.89" vaporized=""/>
    <tripinfo id="16" depart="80.00" departLane="sm_0" departPos="5.10" departSpeed="0.00" departDelay="0.00" arrival="150.00" arrivalLane="mw_0" arrivalPos="92.80" arrivalSpeed="12.06" duration="70.00" routeLength="194.69" waitingTime="46.00" waitingCount="1" stopTime="0.00" timeLoss="52.51" rerouteNo="0" devices="tripinfo_16" vType="DEFAULT_VEHTYPE" speedFactor="0.88" vaporized=""/>
    <tripinfo id="20" depart="100.00" departLane="sm_0" departPos="5.10" departSpeed="0.00" departDelay="0.00" arrival="151.00" arrivalLane="me_0" arrivalPos="92.80" arrivalSpeed="13.09" duration="51.00" routeLength="189.53" waitingTime="27.00" waitingCount="1" stopTime="0.00" timeLoss="36.00" rerouteNo="0" devices="tripinfo_20" vType="DEFAULT_VEHTYPE" speedFactor="1.02" vaporized=""/>
    <tripinfo id="24" depart="120.00" departLane="sm_0" departPos="5.10" departSpeed="0.00" departDelay="0.00" arrival="154.00" arrivalLane="mn_0" arrivalPos="92.80" arrivalSpeed="10.62" duration="34.00" routeLength="194.90" waitingTime="7.00" waitingCount="1" stopTime="0.00" timeLoss="16.49" rerouteNo="0" devices="tripinfo_24" vType="DEFAULT_VEHTYPE" speedFactor="0.83" vaporized=""/>
    <tripinfo id="27" depart="135.00" departLane="sm_0" departPos="5.10" departSpeed="0.00" departDelay="0.00" arrival="156.00" arrivalLane="me_0" arrivalPos="92.80" arrivalSpeed="12.83" duration="21.00" routeLength="189.53" waitingTime="0.00" waitingCount="0" stopTime="0.00" timeLoss="6.09" rerouteNo="0" devices="tripinfo_27" vType="DEFAULT_VEHTYPE" speedFactor="0.95" vaporized=""/>
    <tripinfo id="18" depart="90.00" departLane="wm_0" departPos="5.10" departSpeed="0.00" departDelay="0.00" arrival="171.00" arrivalLane="ms_0" arrivalPos="92.80" arrivalSpeed="12.32" duration="81.00" routeLength="189.53" waitingTime="59.00" waitingCount="1" stopTime="0.00" timeLoss="65.85" rerouteNo="0" devices="tripinfo_18" vType="DEFAULT_VEHTYPE" speedFactor="0.94" vaporized=""/>
    <tripinfo id="19" depart="95.00" departLane="wm_0" departPos="5.10" departSpeed="0.00" departDelay="0.00" arrival="173.00" arrivalLane="ms_0" arrivalPos="92.80" arrivalSpeed="15.06" duration="78.00" routeLength="189.53" waitingTime="55.00" waitingCount="1" stopTime="0.00" timeLoss="65.14" rerouteNo="0" devices="tripinfo_19" vType="DEFAULT_VEHTYPE" speedFactor="1.16" vaporized=""/>
    <tripinfo id="30" depart="150.00" departLane="wm_0" departPos="5.10" departSpeed="0.00" departDelay="0.00" arrival="175.00" arrivalLane="ms_0" arrivalPos="92.80" arrivalSpeed="15.79" duration="25.00" routeLength="189.53" waitingTime="1.00" waitingCount="1" stopTime="0.00" timeLoss="12.45" rerouteNo="0" devices="tripinfo_30" vType="DEFAULT_VEHTYPE" speedFactor="1.18" vaporized=""/>
    <tripinfo id="32" depart="160.00" departLane="wm_0" departPos="5.10" departSpeed="0.00" departDelay="0.00" arrival="180.00" arrivalLane="ms_0" arrivalPos="92.80" arrivalSpeed="13.10" duration="20.00" routeLength="189.53" waitingTime="0.00" waitingCount="0" stopTime="0.00" timeLoss="4.67" rerouteNo="0" devices="tripinfo_32" vType="DEFAULT_VEHTYPE" speedFactor="1.01" vaporized=""/>
    <tripinfo id="25" depart="125.00" departLane="nm_0" departPos="5.10" departSpeed="0.00" departDelay="0.00" arrival="195.00" arrivalLane="me_0" arrivalPos="92.80" arrivalSpeed="11.49" duration="70.00" routeLength="194.69" waitingTime="46.00" waitingCount="1" stopTime="0.00" timeLoss="52.97" rerouteNo="0" devices="tripinfo_25" vType="DEFAULT_VEHTYPE" speedFactor="0.87" vaporized=""/>
    <tripinfo id="26" depart="130.00" departLane="nm_0" departPos="5.10" departSpeed="0.00" departDelay="0.00" arrival="198.00" arrivalLane="mw_0" arrivalPos="92.80" arrivalSpeed="11.52" duration="68.00" routeLength="189.53" waitingTime="43.00" waitingCount="1" stopTime="0.00" timeLoss="51.43" rerouteNo="0" devices="tripinfo_26" vType="DEFAULT_VEHTYPE" speedFactor="0.92" vaporized=""/>
    <tripinfo id="34" depart="170.00" departLane="nm_0" departPos="5.10" departSpeed="0.00" departDelay="0.00" arrival="199.00" arrivalLane="ms_0" arrivalPos="92.80" arrivalSpeed="13.09" duration="29.00" routeLength="194.90" waitingTime="5.00" waitingCount="1" stopTime="0.00" timeLoss="14.00" rerouteNo="0" devices="tripinfo_34" vType="DEFAULT_VEHTYPE" speedFactor="0.99" vaporized=""/>
    <tripinfo id="28" depart="140.00" departLane="em_0" departPos="5.10" departSpeed="0.00" departDelay="0.00" arrival="217.00" arrivalLane="ms_0" arrivalPos="92.80" arrivalSpeed="15.53" duration="77.00" routeLength="194.69" waitingTime="54.00" waitingCount="1" stopTime="0.00" timeLoss="63.67" rerouteNo="0" devices="tripinfo_28" vType="DEFAULT_VEHTYPE" speedFactor="1.13" vaporized=""/>
    <tripinfo id="29" depart="145.00" departLane="em_0" departPos="5.10" departSpeed="0.00" departDelay="0.00" arrival="221.00" arrivalLane="mn_0" arrivalPos="92.80" arrivalSpeed="11.68" duration="76.00" routeLength="189.53" waitingTime="50.00" waitingCount="1" stopTime="0.00" timeLoss="60.16" rerouteNo="0" devices="tripinfo_29" vType="DEFAULT_VEHTYPE" speedFactor="0.93" vaporized=""/>
    <tripinfo id="33" depart="165.00" departLane="em_0" departPos="5.10" departSpeed="0.00" departDelay="0.00" arrival="221.00" arrivalLane="mw_0" arrivalPos="92.80" arrivalSpeed="16.26" duration="56.00" routeLength="194.90" waitingTime="33.00" waitingCount="1" stopTime="0.00" timeLoss="43.91" rerouteNo="0" devices="tripinfo_33" vType="DEFAULT_VEHTYPE" speedFactor="1.17" vaporized=""/>
    <tripinfo id="35" depart="175.00" departLane="em_0" departPos="5.10" departSpeed="0.00" departDelay="0.00" arrival="224.00" arrivalLane="mw_0" arrivalPos="92.80" arrivalSpeed="13.30" duration="49.00" routeLength="194.90" waitingTime="23.00" waitingCount="1" stopTime="0.00" timeLoss="34.71" rerouteNo="0" devices="tripinfo_35" vType="DEFAULT_VEHTYPE" speedFactor="1.02" vaporized=""/>
    <tripinfo id="31" depart="155.00" departLane="sm_0" departPos="5.10" departSpeed="0.00" departDelay="0.00" arrival="240.00" arrivalLane="mn_0" arrivalPos="92.80" arrivalSpeed="15.05" duration="85.00" routeLength="194.90" waitingTime="63.00" waitingCount="1" stopTime="0.00" timeLoss="72.27" rerouteNo="0" devices="tripinfo_31" vType="DEFAULT_VEHTYPE" speedFactor="1.15" vaporized=""/>
    <tripinfo id="37" depart="185.00" departLane="sm_0" departPos="5.10" departSpeed="0.00" departDelay="0.00" arrival="241.00" arrivalLane="mn_0" arrivalPos="92.80" arrivalSpeed="15.84" duration="56.00" routeLength="194.90" waitingTime="34.00" waitingCount="1" stopTime="0.00" timeLoss="44.11" rerouteNo="0" devices="tripinfo_37" vType="DEFAULT_VEHTYPE" speedFactor="1.18" vaporized=""/>
    <tripinfo id="40" depart="200.00" departLane="sm_0" departPos="5.10" departSpeed="0.00" departDelay="0.00" arrival="244.00" arrivalLane="mn_0" arrivalPos="92.80" arrivalSpeed="13.21" duration="44.00" routeLength="194.90" waitingTime="21.00" waitingCount="1" stopTime="0.00" timeLoss="29.76" rerouteNo="0" devices="tripinfo_40" vType="DEFAULT_VEHTYPE" speedFactor="1.03" vaporized=""/>
    <tripinfo id="41" depart="205.00" departLane="sm_0" departPos="5.10" departSpeed="0.00" departDelay="0.00" arrival="248.00" arrivalLane="mw_0" arrivalPos="92.80" arrivalSpeed="12.89" duration="43.00" routeLength="194.69" waitingTime="17.00" waitingCount="1" stopTime="0.00" timeLoss="27.10" rerouteNo="0" devices="tripinfo_41" vType="DEFAULT_VEHTYPE" speedFactor="0.96" vaporized=""/>
    <tripinfo id="36" depart="180.00" departLane="wm_0" departPos="5.10" departSpeed="0.00" departDelay="0.00" arrival="264.00" arrivalLane="mn_0" arrivalPos="92.80" arrivalSpeed="13.14" duration="84.00" routeLength="194.69" waitingTime="60.00" waitingCount="1" stopTime="0.00" timeLoss="68.25" rerouteNo="0" devices="tripinfo_36" vType="DEFAULT_VEHTYPE" speedFactor="0.97" vaporized=""/>
    <tripinfo id="38" depart="190.00" departLane="wm_0" departPos="5.10" departSpeed="0.00" departDelay="0.00" arrival="266.00" arrivalLane="mn_0" arrivalPos="92.80" arrivalSpeed="14.34" duration="76.00" routeLength="194.69" waitingTime="50.00" waitingCount="1" stopTime="0.00" timeLoss="61.77" rerouteNo="0" devices="tripinfo_38" vType="DEFAULT_VEHTYPE" speedFactor="1.10" vaporized=""/>
    <tripinfo id="43" depart="215.00" departLane="wm_0" departPos="5.10" departSpeed="0.00" departDelay="0.00" arrival="268.00" arrivalLane="ms_0" arrivalPos="92.80" arrivalSpeed="13.40" duration="53.00" routeLength="189.53" waitingTime="29.00" waitingCount="1" stopTime="0.00" timeLoss="39.01" rerouteNo="0" devices="tripinfo_43" vType="DEFAULT_VEHTYPE" speedFactor="1.04" vaporized=""/>
    <tripinfo id="46" depart="230.00" departLane="wm_0" departPos="5.10" departSpeed="0.00" departDelay="0.00" arrival="271.00" arrivalLane="mn_0" arrivalPos="92.80" arrivalSpeed="13.31" duration="41.00" routeLength="194.69" waitingTime="14.00" waitingCount="1" stopTime="0.00" timeLoss="25.20" rerouteNo="0" devices="tripinfo_46" vType="DEFAULT_VEHTYPE" speedFactor="1.00" vaporized=""/>
    <tripinfo id="48" depart="240.00" departLane="wm_0" departPos="5.10" departSpeed="0.00" departDelay="0.00" arrival="274.00" arrivalLane="ms_0" arrivalPos="92.80" arrivalSpeed="11.88" duration="34.00" routeLength="189.53" waitingTime="6.00" waitingCount="1" stopTime="0.00" timeLoss="17.40" rerouteNo="0" devices="tripinfo_48" vType="DEFAULT_VEHTYPE" speedFactor="0.88" vaporized=""/>
    <tripinfo id="49" depart="245.00" departLane="wm_0" departPos="5.10" departSpeed="0.00" departDelay="0.00" arrival="277.00" arrivalLane="me_0" arrivalPos="92.80" arrivalSpeed="11.36" duration="32.00" routeLength="194.90" waitingTime="2.00" waitingCount="1" stopTime="0.00" timeLoss="14.92" rerouteNo="0" devices="tripinfo_49" vType="DEFAULT_VEHTYPE" speedFactor="0.85" vaporized=""/>
    <tripinfo id="39" depart="195.00" departLane="nm_0" departPos="5.10" departSpeed="0.00" departDelay="0.00" arrival="288.00" arrivalLane="me_0" arrivalPos="92.80" arrivalSpeed="12.19" duration="93.00" routeLength="194.69" waitingTime="67.00" waitingCount="1" stopTime="0.00" timeLoss="75.77" rerouteNo="0" devices="tripinfo_39" vType="DEFAULT_VEHTYPE" speedFactor="0.90" vaporized=""/>
    <tripinfo id="42" depart="210.00" departLane="nm_0" departPos="5.10" departSpeed="0.00" departDelay="0.00" arrival="289.00" arrivalLane="me_0" arrivalPos="92.80" arrivalSpeed="14.56" duration="79.00" routeLength="194.69" waitingTime="55.00" waitingCount="1" stopTime="0.00" timeLoss="65.33" rerouteNo="0" devices="tripinfo_42" vType="DEFAULT_VEHTYPE" speedFactor="1.09" vaporized=""/>
    <tripinfo id="52" depart="260.00" departLane="nm_0" departPos="5.10" departSpeed="0.00" departDelay="0.00" arrival="291.00" arrivalLane="ms_0" arrivalPos="92.80" arrivalSpeed="13.69" duration="31.00" routeLength="194.90" waitingTime="5.00" waitingCount="1" stopTime="0.00" timeLoss="16.44" rerouteNo="0" devices="tripinfo_52" vType="DEFAULT_VEHTYPE" speedFactor="1.02" vaporized=""/>
    <tripinfo id="54" depart="270.00" departLane="nm_0" departPos="5.10" departSpeed="0.00" departDelay="0.00" arrival="293.00" arrivalLane="mw_0" arrivalPos="92.80" arrivalSpeed="13.85" duration="23.00" routeLength="189.53" waitingTime="0.00" waitingCount="0" stopTime="0.00" timeLoss="8.55" rerouteNo="0" devices="tripinfo_54" vType="DEFAULT_VEHTYPE" speedFactor="1.00" vaporized=""/>
    <tripinfo id="44" depart="220.00" departLane="em_0" departPos="5.10" departSpeed="0.00" departDelay="0.00" arrival="309.00" arrivalLane="mn_0" arrivalPos="92.80" arrivalSpeed="14.00" duration="89.00" routeLength="189.53" waitingTime="66.00" waitingCount="1" stopTime="0.00" timeLoss="75.32" rerouteNo="0" devices="tripinfo_44" vType="DEFAULT_VEHTYPE" speedFactor="1.04" vaporized=""/>
    <tripinfo id="45" depart="225.00" departLane="em_0" departPos="5.10" departSpeed="0.00" departDelay="0.00" arrival="312.00" arrivalLane="ms_0" arrivalPos="92.80" arrivalSpeed="13.89" duration="87.00" routeLength="194.69" waitingTime="61.00" waitingCount="1" stopTime="0.00" timeLoss="72.87" rerouteNo="0" devices="tripinfo_45" vType="DEFAULT_VEHTYPE" speedFactor="1.09" vaporized=""/>
    <tripinfo id="47" depart="235.00" departLane="em_0" departPos="5.10" departSpeed="0.00" departDelay="0.00" arrival="316.00" arrivalLane="mn_0" arrivalPos="92.80" arrivalSpeed="11.43" duration="81.00" routeLength="189.53" waitingTime="53.00" waitingCount="1" stopTime="0.00" timeLoss="64.35" rerouteNo="0" devices="tripinfo_47" vType="DEFAULT_VEHTYPE" speedFactor="0.90" vaporized=""/>
    <tripinfo id="50" depart="250.00" departLane="em_0" departPos="5.10" departSpeed="0.00" departDelay="0.00" arrival="319.00" arrivalLane="ms_0" arrivalPos="92.80" arrivalSpeed="11.50" duration="69.00" routeLength="194.69" waitingTime="41.00" waitingCount="1" stopTime="0.00" timeLoss="51.28" rerouteNo="0" devices="tripinfo_50" vType="DEFAULT_VEHTYPE" speedFactor="0.85" vaporized=""/>
    <tripinfo id="53" depart="265.00" departLane="em_0" departPos="5.10" departSpeed="0.00" departDelay="0.00" arrival="320.00" arrivalLane="mn_0" arrivalPos="92.80" arrivalSpeed="14.58" duration="55.00" routeLength="189.53" waitingTime="28.00" waitingCount="1" stopTime="0.00" timeLoss="40.97" rerouteNo="0" devices="tripinfo_53" vType="DEFAULT_VEHTYPE" speedFactor="1.10" vaporized=""/>
    <tripinfo id="51" depart="255.00" departLane="sm_0" departPos="5.10" departSpeed="0.00" departDelay="0.00" arrival="332.00" arrivalLane="mn_0" arrivalPos="92.80" arrivalSpeed="15.37" duration="77.00" routeLength="194.90" waitingTime="55.00" waitingCount="1" stopTime="0.00" timeLoss="64.19" rerouteNo="0" devices="tripinfo_51" vType="DEFAULT_VEHTYPE" speedFactor="1.17" vaporized=""/>
    <tripinfo id="56" depart="280.00" departLane="sm_0" departPos="5.10" departSpeed="0.00" departDelay="0.00" arrival="336.00" arrivalLane="me_0" arrivalPos="92.80" arrivalSpeed="12.11" duration="56.00" routeLength="189.53" waitingTime="31.00" waitingCount="1" stopTime="0.00" timeLoss="39.39" rerouteNo="0" devices="tripinfo_56" vType="DEFAULT_VEHTYPE" speedFactor="0.90" vaporized=""/>
    <tripinfo id="59" depart="295.00" departLane="sm_0" departPos="5.10" departSpeed="0.00" departDelay="0.00" arrival="338.00" arrivalLane="me_0" arrivalPos="92.80" arrivalSpeed="12.91" duration="43.00" routeLength="189.53" waitingTime="17.00" waitingCount="1" stopTime="0.00" timeLoss="27.73" rerouteNo="0" devices="tripinfo_59" vType="DEFAULT_VEHTYPE" speedFactor="0.97" vaporized=""/>
    <tripinfo id="55" depart="275.00" departLane="wm_0" departPos="5.10" departSpeed="0.00" departDelay="0.00" arrival="356.00" arrivalLane="mn_0" arrivalPos="92.80" arrivalSpeed="12.71" duration="81.00" routeLength="194.69" waitingTime="55.00" waitingCount="1" stopTime="0.00" timeLoss="65.63" rerouteNo="0" devices="tripinfo_55" vType="DEFAULT_VEHTYPE" speedFactor="1.00" vaporized=""/>
    <tripinfo id="57" depart="285.00" departLane="wm_0" departPos="5.10" departSpeed="0.00" departDelay="0.00" arrival="357.00" arrivalLane="me_0" arrivalPos="92.80" arrivalSpeed="15.31" duration="72.00" routeLength="194.90" waitingTime="48.00" waitingCount="1" stopTime="0.00" timeLoss="58.82" rerouteNo="0" devices="tripinfo_57" vType="DEFAULT_VEHTYPE" speedFactor="1.14" vaporized=""/>
    <tripinfo id="60" depart="300.00" departLane="wm_0" departPos="5.10" departSpeed="0.00" departDelay="0.00" arrival="360.00" arrivalLane="ms_0" arrivalPos="92.80" arrivalSpeed="14.95" duration="60.00" routeLength="189.53" waitingTime="35.00" waitingCount="1" stopTime="0.00" timeLoss="46.25" rerouteNo="0" devices="tripinfo_60" vType="DEFAULT_VEHTYPE" speedFactor="1.08" vaporized=""/>
    <tripinfo id="61" depart="305.00" departLane="wm_0" departPos="5.10" departSpeed="0.00" departDelay="0.00" arrival="362.00" arrivalLane="ms_0" arrivalPos="92.80" arrivalSpeed="14.79" duration="57.00" routeLength="189.53" waitingTime="31.00" waitingCount="1" stopTime="0.00" timeLoss="43.67" rerouteNo="0" devices="tripinfo_61" vType="DEFAULT_VEHTYPE" speedFactor="1.12" vaporized=""/>
    <tripinfo id="64" depart="320.00" departLane="wm_0" departPos="5.10" departSpeed="0.00" departDelay="0.00" arrival="364.00" arrivalLane="me_0" arrivalPos="92.80" arrivalSpeed="12.92" duration="44.00" routeLength="194.90" waitingTime="17.00" waitingCount="1" stopTime="0.00" timeLoss="28.93" rerouteNo="0" devices="tripinfo_64" vType="DEFAULT_VEHTYPE" speedFactor="0.94" vaporized=""/>
    <tripinfo id="66" depart="330.00" departLane="wm_0" departPos="5.10" departSpeed="0.00" departDelay="0.00" arrival="367.00" arrivalLane="me_0" arrivalPos="92.80" arrivalSpeed="11.86" duration="37.00" routeLength="194.90" waitingTime="10.00" waitingCount="1" stopTime="0.00" timeLoss="20.73" rerouteNo="0" devices="tripinfo_66" vType="DEFAULT_VEHTYPE" speedFactor="0.91" vaporized=""/>
    <tripinfo id="69" depart="345.00" departLane="wm_0" departPos="5.10" departSpeed="0.00" departDelay="0.00" arrival="368.00" arrivalLane="me_0" arrivalPos="92.80" arrivalSpeed="13.48" duration="23.00" routeLength="194.90" waitingTime="0.00" waitingCount="0" stopTime="0.00" timeLoss="9.11" rerouteNo="0" devices="tripinfo_69" vType="DEFAULT_VEHTYPE" speedFactor="1.02" vaporized=""/>
    <tripinfo id="58" depart="290.00" departLane="nm_0" departPos="5.10" departSpeed="0.00" departDelay="0.00" arrival="379.00" arrivalLane="ms_0" arrivalPos="92.80" arrivalSpeed="13.18" duration="89.00" routeLength="194.90" waitingTime="65.00" waitingCount="1" stopTime="0.00" timeLoss="74.46" rerouteNo="0" devices="tripinfo_58" vType="DEFAULT_VEHTYPE" speedFactor="1.02" vaporized=""/>
    <tripinfo id="65" depart="325.00" departLane="nm_0" departPos="5.10" departSpeed="0.00" departDelay="0.00" arrival="383.00" arrivalLane="me_0" arrivalPos="92.80" arrivalSpeed="11.10" duration="58.00" routeLength="194.69" waitingTime="32.00" waitingCount="1" stopTime="0.00" timeLoss="40.22" rerouteNo="0" devices="tripinfo_65" vType="DEFAULT_VEHTYPE" speedFactor="0.88" vaporized=""/>
    <tripinfo id="70" depart="350.00" departLane="nm_0" departPos="5.10" departSpeed="0.00" departDelay="0.00" arrival="383.00" arrivalLane="ms_0" arrivalPos="92.80" arrivalSpeed="13.39" duration="33.00" routeLength="194.90" waitingTime="8.00" waitingCount="1" stopTime="0.00" timeLoss="18.49" rerouteNo="0" devices="tripinfo_70" vType="DEFAULT_VEHTYPE" speedFactor="1.02" vaporized=""/>
    <tripinfo id="71" depart="355.00" departLane="nm_0" departPos="5.10" departSpeed="0.00" departDelay="0.00" arrival="386.00" arrivalLane="mw_0" arrivalPos="92.80" arrivalSpeed="13.32" duration="31.00" routeLength="189.53" waitingTime="4.00" waitingCount="1" stopTime="0.00" timeLoss="15.64" rerouteNo="0" devices="tripinfo_71" vType="DEFAULT_VEHTYPE" speedFactor="0.97" vaporized=""/>
    <tripinfo id="72" depart="360.00" departLane="nm_0" departPos="5.10" departSpeed="0.00" departDelay="0.00" arrival="389.00" arrivalLane="me_0" arrivalPos="92.80" arrivalSpeed="12.80" duration="29.00" routeLength="194.69" waitingTime="1.00" waitingCount="1" stopTime="0.00" timeLoss="12.89" rerouteNo="0" devices="tripinfo_72" vType="DEFAULT_VEHTYPE" speedFactor="0.94" vaporized=""/>
    <tripinfo id="62" depart="310.00" departLane="em_0" departPos="5.10" departSpeed="0.00" departDelay="0.00" arrival="401.00" arrivalLane="mn_0" arrivalPos="92.80" arrivalSpeed="13.52" duration="91.00" routeLength="189.53" waitingTime="68.00" waitingCount="1" stopTime="0.00" timeLoss="76.67" rerouteNo="0" devices="tripinfo_62" vType="DEFAULT_VEHTYPE" speedFactor="1.02" vaporized=""/>
    <tripinfo id="63" depart="315.00" departLane="em_0" departPos="5.10" departSpeed="0.00" departDelay="0.00" arrival="404.00" arrivalLane="mw_0" arrivalPos="92.80" arrivalSpeed="13.66" duration="89.00" routeLength="194.90" waitingTime="66.00" waitingCount="1" stopTime="0.00" timeLoss="73.98" rerouteNo="0" devices="tripinfo_63" vType="DEFAULT_VEHTYPE" speedFactor="0.99" vaporized=""/>
    <tripinfo id="67" depart="335.00" departLane="em_0" departPos="5.10" departSpeed="0.00" departDelay="0.00" arrival="407.00" arrivalLane="mn_0" arrivalPos="92.80" arrivalSpeed="12.02" duration="72.00" routeLength="189.53" waitingTime="46.00" waitingCount="1" stopTime="0.00" timeLoss="56.07" rerouteNo="0" devices="tripinfo_67" vType="DEFAULT_VEHTYPE" speedFactor="0.91" vaporized=""/>
    <tripinfo id="68" depart="340.00" departLane="em_0" departPos="5.10" departSpeed="0.00" departDelay="0.00" arrival="408.00" arrivalLane="mw_0" arrivalPos="92.80" arrivalSpeed="14.29" duration="68.00" routeLength="194.90" waitingTime="42.00" waitingCount="1" stopTime="0.00" timeLoss="54.32" rerouteNo="0" devices="tripinfo_68" vType="DEFAULT_VEHTYPE" speedFactor="1.04" vaporized=""/>
    <tripinfo id="74" depart="370.00" departLane="em_0" departPos="5.10" departSpeed="0.00" departDelay="0.00" arrival="411.00" arrivalLane="mn_0" arrivalPos="92.80" arrivalSpeed="13.21" duration="41.00" routeLength="189.53" waitingTime="13.00" waitingCount="1" stopTime="0.00" timeLoss="26.25" rerouteNo="0" devices="tripinfo_74" vType="DEFAULT_VEHTYPE" speedFactor="0.96" vaporized=""/>