<?xml version="1.0" encoding="UTF-8"?>

<!-- generated on 2021-11-23 11:07:56 by Eclipse SUMO GUI Version 1.10.0
<configuration xmlns:xsi="http://www.w3.org/2001/XMLSchema-instance" xsi:noNamespaceSchemaLocation="http://sumo.dlr.de/xsd/sumoConfiguration.xsd">

    <input>
        <net-file value="C:\Users\Marcus\Desktop\Hauptordner\Studium\Masterstudium\3.%20Semester\Projekt_Sim-Opt\Traffic_Simulation\2X3GridNetwork\2x3net.net.xml"/>
        <route-files value="C:\Users\Marcus\Desktop\Hauptordner\Studium\Masterstudium\3.%20Semester\Projekt_Sim-Opt\Traffic_Simulation\2X3GridNetwork\2x3Routes.xml"/>
        <additional-files value="C:\Users\Marcus\Desktop\Hauptordner\Studium\Masterstudium\3.%20Semester\Projekt_Sim-Opt\Traffic_Simulation\2X3GridNetwork\additionals.xml"/>
    </input>

    <output>
        <tripinfo-output value="tripinfo.xml"/>
        <statistic-output value="statistics.xml"/>
    </output>

    <report>
        <no-step-log value="true"/>
    </report>

    <traci_server>
        <remote-port value="57484"/>
    </traci_server>

</configuration>
-->

<tripinfos xmlns:xsi="http://www.w3.org/2001/XMLSchema-instance" xsi:noNamespaceSchemaLocation="http://sumo.dlr.de/xsd/tripinfo_file.xsd">
    <tripinfo id="2.0" depart="3.00" departLane="N2A2_0" departPos="5.10" departSpeed="0.00" departDelay="0.00" arrival="142.00" arrivalLane="B2S2_0" arrivalPos="492.80" arrivalSpeed="12.72" duration="139.00" routeLength="1494.90" waitingTime="11.00" waitingCount="1" stopTime="0.00" timeLoss="24.02" rerouteNo="0" devices="tripinfo_2.0" vType="DEFAULT_VEHTYPE" speedFactor="0.94" vaporized=""/>
    <tripinfo id="2.1" depart="9.00" departLane="N2A2_0" departPos="5.10" departSpeed="0.00" departDelay="0.00" arrival="144.00" arrivalLane="B2S2_0" arrivalPos="492.80" arrivalSpeed="14.12" duration="135.00" routeLength="1494.90" waitingTime="10.00" waitingCount="1" stopTime="0.00" timeLoss="29.85" rerouteNo="0" devices="tripinfo_2.1" vType="DEFAULT_VEHTYPE" speedFactor="1.03" vaporized=""/>
    <tripinfo id="2.2" depart="21.00" departLane="N2A2_0" departPos="5.10" departSpeed="0.00" departDelay="0.00" arrival="145.00" arrivalLane="B2S2_0" arrivalPos="492.80" arrivalSpeed="14.51" duration="124.00" routeLength="1494.90" waitingTime="4.00" waitingCount="1" stopTime="0.00" timeLoss="25.28" rerouteNo="0" devices="tripinfo_2.2" vType="DEFAULT_VEHTYPE" speedFactor="1.09" vaporized=""/>
    <tripinfo id="2.3" depart="40.00" departLane="N2A2_0" departPos="5.10" departSpeed="0.00" departDelay="0.00" arrival="154.00" arrivalLane="B2S2_0" arrivalPos="492.80" arrivalSpeed="13.16" duration="114.00" routeLength="1494.90" waitingTime="0.00" waitingCount="0" stopTime="0.00" timeLoss="7.68" rerouteNo="0" devices="tripinfo_2.3" vType="DEFAULT_VEHTYPE" speedFactor="1.02" vaporized=""/>
    <tripinfo id="5.0" depart="2.00" departLane="W2B1_0" departPos="5.10" departSpeed="0.00" departDelay="0.00" arrival="161.00" arrivalLane="B3E2_0" arrivalPos="496.00" arrivalSpeed="13.43" duration="159.00" routeLength="1994.90" waitingTime="7.00" waitingCount="1" stopTime="0.00" timeLoss="23.06" rerouteNo="0" devices="tripinfo_5.0" vType="DEFAULT_VEHTYPE" speedFactor="1.06" vaporized=""/>
    <tripinfo id="2.4" depart="44.00" departLane="N2A2_0" departPos="5.10" departSpeed="0.00" departDelay="0.00" arrival="163.00" arrivalLane="B2S2_0" arrivalPos="492.80" arrivalSpeed="12.39" duration="119.00" routeLength="1494.90" waitingTime="0.00" waitingCount="0" stopTime="0.00" timeLoss="8.40" rerouteNo="0" devices="tripinfo_2.4" vType="DEFAULT_VEHTYPE" speedFactor="0.98" vaporized=""/>
    <tripinfo id="1.0" depart="11.00" departLane="N1A1_0" departPos="5.10" departSpeed="0.00" departDelay="1.00" arrival="167.00" arrivalLane="B1S1_0" arrivalPos="492.80" arrivalSpeed="10.51" duration="156.00" routeLength="1494.90" waitingTime="12.00" waitingCount="1" stopTime="0.00" timeLoss="26.05" rerouteNo="0" devices="tripinfo_1.0" vType="DEFAULT_VEHTYPE" speedFactor="0.83" vaporized=""/>
    <tripinfo id="4.0" depart="3.00" departLane="W1A1_0" departPos="5.10" departSpeed="0.00" departDelay="0.00" arrival="184.00" arrivalLane="A3E1_0" arrivalPos="496.00" arrivalSpeed="13.27" duration="181.00" routeLength="1994.90" waitingTime="15.00" waitingCount="3" stopTime="0.00" timeLoss="38.79" rerouteNo="0" devices="tripinfo_4.0" vType="DEFAULT_VEHTYPE" speedFactor="1.01" vaporized=""/>
    <tripinfo id="3.0" depart="46.00" departLane="N3A3_0" departPos="5.10" departSpeed="0.00" departDelay="0.00" arrival="193.00" arrivalLane="B3S3_0" arrivalPos="492.80" arrivalSpeed="11.43" duration="147.00" routeLength="1494.90" waitingTime="2.00" waitingCount="1" stopTime="0.00" timeLoss="16.50" rerouteNo="0" devices="tripinfo_3.0" vType="DEFAULT_VEHTYPE" speedFactor="0.83" vaporized=""/>
    <tripinfo id="3.1" depart="73.00" departLane="N3A3_0" departPos="5.10" departSpeed="0.00" departDelay="0.00" arrival="195.00" arrivalLane="B3S3_0" arrivalPos="492.80" arrivalSpeed="13.24" duration="122.00" routeLength="1494.90" waitingTime="0.00" waitingCount="0" stopTime="0.00" timeLoss="14.44" rerouteNo="0" devices="tripinfo_3.1" vType="DEFAULT_VEHTYPE" speedFactor="1.01" vaporized=""/>
    <tripinfo id="2.5" depart="47.00" departLane="N2A2_0" departPos="5.10" departSpeed="0.00" departDelay="2.00" arrival="196.00" arrivalLane="B2S2_0" arrivalPos="492.80" arrivalSpeed="11.08" duration="149.00" routeLength="1494.90" waitingTime="13.00" waitingCount="1" stopTime="0.00" timeLoss="27.49" rerouteNo="0" devices="tripinfo_2.5" vType="DEFAULT_VEHTYPE" speedFactor="0.89" vaporized=""/>
    <tripinfo id="3.2" depart="81.00" departLane="N3A3_0" departPos="5.10" departSpeed="0.00" departDelay="0.00" arrival="197.00" arrivalLane="B3S3_0" arrivalPos="492.80" arrivalSpeed="15.27" duration="116.00" routeLength="1494.90" waitingTime="0.00" waitingCount="0" stopTime="0.00" timeLoss="23.90" rerouteNo="0" devices="tripinfo_3.2" vType="DEFAULT_VEHTYPE" speedFactor="1.18" vaporized=""/>
    <tripinfo id="2.6" depart="74.00" departLane="N2A2_0" departPos="5.10" departSpeed="0.00" departDelay="0.00" arrival="198.00" arrivalLane="B2S2_0" arrivalPos="492.80" arrivalSpeed="15.91" duration="124.00" routeLength="1494.90" waitingTime="7.00" waitingCount="1" stopTime="0.00" timeLoss="31.18" rerouteNo="0" devices="tripinfo_2.6" vType="DEFAULT_VEHTYPE" speedFactor="1.17" vaporized=""/>
    <tripinfo id="1.1" depart="30.00" departLane="N1A1_0" departPos="5.10" departSpeed="0.00" departDelay="0.00" arrival="199.00" arrivalLane="B1S1_0" arrivalPos="492.80" arrivalSpeed="13.31" duration="169.00" routeLength="1494.90" waitingTime="26.00" waitingCount="2" stopTime="0.00" timeLoss="60.22" rerouteNo="0" devices="tripinfo_1.1" vType="DEFAULT_VEHTYPE" speedFactor="0.99" vaporized=""/>
    <tripinfo id="2.7" depart="80.00" departLane="N2A2_0" departPos="5.10" departSpeed="0.00" departDelay="0.00" arrival="203.00" arrivalLane="B2S2_0" arrivalPos="492.80" arrivalSpeed="13.19" duration="123.00" routeLength="1494.90" waitingTime="0.00" waitingCount="0" stopTime="0.00" timeLoss="12.09" rerouteNo="0" devices="tripinfo_2.7" vType="DEFAULT_VEHTYPE" speedFactor="0.97" vaporized=""/>
    <tripinfo id="1.2" depart="39.00" departLane="N1A1_0" departPos="5.10" departSpeed="0.00" departDelay="4.00" arrival="209.00" arrivalLane="B1S1_0" arrivalPos="492.80" arrivalSpeed="12.15" duration="170.00" routeLength="1494.90" waitingTime="16.00" waitingCount="1" stopTime="0.00" timeLoss="55.12" rerouteNo="0" devices="tripinfo_1.2" vType="DEFAULT_VEHTYPE" speedFactor="0.94" vaporized=""/>
    <tripinfo id="5.1" depart="20.00" departLane="W2B1_0" departPos="5.10" departSpeed="0.00" departDelay="0.00" arrival="220.00" arrivalLane="B3E2_0" arrivalPos="496.00" arrivalSpeed="11.43" duration="200.00" routeLength="1994.90" waitingTime="15.00" waitingCount="1" stopTime="0.00" timeLoss="31.59" rerouteNo="0" devices="tripinfo_5.1" vType="DEFAULT_VEHTYPE" speedFactor="0.86" vaporized=""/>
    <tripinfo id="5.2" depart="29.00" departLane="W2B1_0" departPos="5.10" departSpeed="0.00" departDelay="0.00" arrival="221.00" arrivalLane="B3E2_0" arrivalPos="496.00" arrivalSpeed="13.61" duration="192.00" routeLength="1994.90" waitingTime="14.00" waitingCount="1" stopTime="0.00" timeLoss="63.96" rerouteNo="0" devices="tripinfo_5.2" vType="DEFAULT_VEHTYPE" speedFactor="1.12" vaporized=""/>
    <tripinfo id="5.3" depart="36.00" departLane="W2B1_0" departPos="5.10" departSpeed="0.00" departDelay="0.00" arrival="223.00" arrivalLane="B3E2_0" arrivalPos="496.00" arrivalSpeed="14.40" duration="187.00" routeLength="1994.90" waitingTime="15.00" waitingCount="1" stopTime="0.00" timeLoss="62.65" rerouteNo="0" devices="tripinfo_5.3" vType="DEFAULT_VEHTYPE" speedFactor="1.16" vaporized=""/>
    <tripinfo id="6.0" depart="8.00" departLane="N1A1_0" departPos="5.10" departSpeed="0.00" departDelay="0.00" arrival="225.00" arrivalLane="B3E2_0" arrivalPos="496.00" arrivalSpeed="15.00" duration="217.00" routeLength="2495.93" waitingTime="9.00" waitingCount="2" stopTime="0.00" timeLoss="49.81" rerouteNo="0" devices="tripinfo_6.0" vType="DEFAULT_VEHTYPE" speedFactor="1.08" vaporized=""/>
    <tripinfo id="3.3" depart="94.00" departLane="N3A3_0" departPos="5.10" departSpeed="0.00" departDelay="0.00" arrival="231.00" arrivalLane="B3S3_0" arrivalPos="492.80" arrivalSpeed="14.12" duration="137.00" routeLength="1494.90" waitingTime="17.00" waitingCount="1" stopTime="0.00" timeLoss="31.60" rerouteNo="0" devices="tripinfo_3.3" vType="DEFAULT_VEHTYPE" speedFactor="1.03" vaporized=""/>
    <tripinfo id="3.4" depart="97.00" departLane="N3A3_0" departPos="5.10" departSpeed="0.00" departDelay="2.00" arrival="236.00" arrivalLane="B3S3_0" arrivalPos="492.80" arrivalSpeed="13.11" duration="139.00" routeLength="1494.90" waitingTime="10.00" waitingCount="1" stopTime="0.00" timeLoss="25.73" rerouteNo="0" devices="tripinfo_3.4" vType="DEFAULT_VEHTYPE" speedFactor="0.96" vaporized=""/>
    <tripinfo id="1.3" depart="63.00" departLane="N1A1_0" departPos="5.10" departSpeed="0.00" departDelay="0.00" arrival="247.00" arrivalLane="B1S1_0" arrivalPos="492.80" arrivalSpeed="12.89" duration="184.00" routeLength="1494.90" waitingTime="35.00" waitingCount="2" stopTime="0.00" timeLoss="70.51" rerouteNo="0" devices="tripinfo_1.3" vType="DEFAULT_VEHTYPE" speedFactor="0.95" vaporized=""/>
    <tripinfo id="6.1" depart="14.00" departLane="N1A1_0" departPos="5.10" departSpeed="0.00" departDelay="4.00" arrival="250.00" arrivalLane="B3E2_0" arrivalPos="496.00" arrivalSpeed="13.64" duration="236.00" routeLength="2495.93" waitingTime="19.00" waitingCount="2" stopTime="0.00" timeLoss="63.69" rerouteNo="0" devices="tripinfo_6.1" vType="DEFAULT_VEHTYPE" speedFactor="1.05" vaporized=""/>
    <tripinfo id="5.4" depart="63.00" departLane="W2B1_0" departPos="5.10" departSpeed="0.00" departDelay="0.00" arrival="252.00" arrivalLane="B3E2_0" arrivalPos="496.00" arrivalSpeed="14.81" duration="189.00" routeLength="1994.90" waitingTime="32.00" waitingCount="2" stopTime="0.00" timeLoss="61.75" rerouteNo="0" devices="tripinfo_5.4" vType="DEFAULT_VEHTYPE" speedFactor="1.13" vaporized=""/>
    <tripinfo id="2.8" depart="103.00" departLane="N2A2_0" departPos="5.10" departSpeed="0.00" departDelay="0.00" arrival="252.00" arrivalLane="B2S2_0" arrivalPos="492.80" arrivalSpeed="14.05" duration="149.00" routeLength="1494.90" waitingTime="31.00" waitingCount="1" stopTime="0.00" timeLoss="44.66" rerouteNo="0" devices="tripinfo_2.8" vType="DEFAULT_VEHTYPE" speedFactor="1.04" vaporized=""/>
    <tripinfo id="2.9" depart="111.00" departLane="N2A2_0" departPos="5.10" departSpeed="0.00" departDelay="0.00" arrival="255.00" arrivalLane="B2S2_0" arrivalPos="492.80" arrivalSpeed="13.61" duration="144.00" routeLength="1494.90" waitingTime="21.00" waitingCount="1" stopTime="0.00" timeLoss="35.73" rerouteNo="0" devices="tripinfo_2.9" vType="DEFAULT_VEHTYPE" speedFactor="1.00" vaporized=""/>
    <tripinfo id="6.2" depart="17.00" departLane="N1A1_0" departPos="5.10" departSpeed="0.00" departDelay="5.00" arrival="280.00" arrivalLane="B3E2_0" arrivalPos="496.00" arrivalSpeed="11.26" duration="263.00" routeLength="2495.93" waitingTime="30.00" waitingCount="2" stopTime="0.00" timeLoss="59.66" rerouteNo="0" devices="tripinfo_6.2" vType="DEFAULT_VEHTYPE" speedFactor="0.89" vaporized=""/>
    <tripinfo id="6.3" depart="20.00" departLane="N1A1_0" departPos="5.10" departSpeed="0.00" departDelay="7.00" arrival="282.00" arrivalLane="B3E2_0" arrivalPos="496.00" arrivalSpeed="12.49" duration="262.00" routeLength="2495.93" waitingTime="28.00" waitingCount="2" stopTime="0.00" timeLoss="69.00" rerouteNo="0" devices="tripinfo_6.3" vType="DEFAULT_VEHTYPE" speedFactor="0.94" vaporized=""/>
    <tripinfo id="6.4" depart="24.00" departLane="N1A1_0" departPos="5.10" departSpeed="0.00" departDelay="3.00" arrival="284.00" arrivalLane="B3E2_0" arrivalPos="496.00" arrivalSpeed="14.16" duration="260.00" routeLength="2495.93" waitingTime="28.00" waitingCount="2" stopTime="0.00" timeLoss="83.20" rerouteNo="0" devices="tripinfo_6.4" vType="DEFAULT_VEHTYPE" speedFactor="1.03" vaporized=""/>
    <tripinfo id="6.5" depart="27.00" departLane="N1A1_0" departPos="5.10" departSpeed="0.00" departDelay="0.00" arrival="285.00" arrivalLane="B3E2_0" arrivalPos="496.00" arrivalSpeed="14.02" duration="258.00" routeLength="2495.93" waitingTime="28.00" waitingCount="2" stopTime="0.00" timeLoss="85.37" rerouteNo="0" devices="tripinfo_6.5" vType="DEFAULT_VEHTYPE" speedFactor="1.05" vaporized=""/>
    <tripinfo id="3.5" depart="110.00" departLane="N3A3_0" departPos="5.10" departSpeed="0.00" departDelay="0.00" arrival="287.00" arrivalLane="B3S3_0" arrivalPos="492.80" arrivalSpeed="13.87" duration="177.00" routeLength="1494.90" waitingTime="57.00" waitingCount="2" stopTime="0.00" timeLoss="78.05" rerouteNo="0" devices="tripinfo_3.5" vType="DEFAULT_VEHTYPE" speedFactor="1.09" vaporized=""/>
    <tripinfo id="6.6" depart="33.00" departLane="N1A1_0" departPos="5.10" departSpeed="0.00" departDelay="0.00" arrival="288.00" arrivalLane="B3E2_0" arrivalPos="496.00" arrivalSpeed="11.97" duration="255.00" routeLength="2495.93" waitingTime="23.00" waitingCount="2" stopTime="0.00" timeLoss="59.45" rerouteNo="0" devices="tripinfo_6.6" vType="DEFAULT_VEHTYPE" speedFactor="0.93" vaporized=""/>
    <tripinfo id="1.4" depart="92.00" departLane="N1A1_0" departPos="5.10" departSpeed="0.00" departDelay="0.00" arrival="292.00" arrivalLane="B1S1_0" arrivalPos="492.80" arrivalSpeed="12.10" duration="200.00" routeLength="1494.90" waitingTime="38.00" waitingCount="2" stopTime="0.00" timeLoss="80.17" rerouteNo="0" devices="tripinfo_1.4" vType="DEFAULT_VEHTYPE" speedFactor="0.90" vaporized=""/>
    <tripinfo id="3.6" depart="168.00" departLane="N3A3_0" departPos="5.10" departSpeed="0.00" departDelay="0.00" arrival="295.00" arrivalLane="B3S3_0" arrivalPos="492.80" arrivalSpeed="12.58" duration="127.00" routeLength="1494.90" waitingTime="0.00" waitingCount="0" stopTime="0.00" timeLoss="11.61" rerouteNo="0" devices="tripinfo_3.6" vType="DEFAULT_VEHTYPE" speedFactor="0.94" vaporized=""/>
    <tripinfo id="2.10" depart="161.00" departLane="N2A2_0" departPos="5.10" departSpeed="0.00" departDelay="0.00" arrival="306.00" arrivalLane="B2S2_0" arrivalPos="492.80" arrivalSpeed="13.63" duration="145.00" routeLength="1494.90" waitingTime="27.00" waitingCount="1" stopTime="0.00" timeLoss="39.09" rerouteNo="0" devices="tripinfo_2.10" vType="DEFAULT_VEHTYPE" speedFactor="1.02" vaporized=""/>
    <tripinfo id="2.11" depart="169.00" departLane="N2A2_0" departPos="5.10" departSpeed="0.00" departDelay="0.00" arrival="310.00" arrivalLane="B2S2_0" arrivalPos="492.80" arrivalSpeed="12.96" duration="141.00" routeLength="1494.90" waitingTime="15.00" waitingCount="1" stopTime="0.00" timeLoss="28.31" rerouteNo="0" devices="tripinfo_2.11" vType="DEFAULT_VEHTYPE" speedFactor="0.96" vaporized=""/>
    <tripinfo id="3.7" depart="193.00" departLane="N3A3_0" departPos="5.10" departSpeed="0.00" departDelay="0.00" arrival="310.00" arrivalLane="B3S3_0" arrivalPos="492.80" arrivalSpeed="13.07" duration="117.00" routeLength="1494.90" waitingTime="0.00" waitingCount="0" stopTime="0.00" timeLoss="8.53" rerouteNo="0" devices="tripinfo_3.7" vType="DEFAULT_VEHTYPE" speedFactor="1.00" vaporized=""/>
    <tripinfo id="4.1" depart="137.00" departLane="W1A1_0" departPos="5.10" departSpeed="0.00" departDelay="0.00" arrival="312.00" arrivalLane="A3E1_0" arrivalPos="496.00" arrivalSpeed="14.24" duration="175.00" routeLength="1994.90" waitingTime="16.00" waitingCount="3" stopTime="0.00" timeLoss="42.11" rerouteNo="0" devices="tripinfo_4.1" vType="DEFAULT_VEHTYPE" speedFactor="1.08" vaporized=""/>
    <tripinfo id="6.7" depart="36.00" departLane="N1A1_0" departPos="5.10" departSpeed="0.00" departDelay="2.00" arrival="322.00" arrivalLane="B3E2_0" arrivalPos="496.00" arrivalSpeed="11.15" duration="286.00" routeLength="2495.93" waitingTime="40.00" waitingCount="3" stopTime="0.00" timeLoss="80.50" rerouteNo="0" devices="tripinfo_6.7" vType="DEFAULT_VEHTYPE" speedFactor="0.88" vaporized=""/>
    <tripinfo id="5.5" depart="121.00" departLane="W2B1_0" departPos="5.10" departSpeed="0.00" departDelay="0.00" arrival="324.00" arrivalLane="B3E2_0" arrivalPos="496.00" arrivalSpeed="13.47" duration="203.00" routeLength="1994.90" waitingTime="27.00" waitingCount="2" stopTime="0.00" timeLoss="61.00" rerouteNo="0" devices="tripinfo_5.5" vType="DEFAULT_VEHTYPE" speedFactor="1.02" vaporized=""/>
    <tripinfo id="5.6" depart="130.00" departLane="W2B1_0" departPos="5.10" departSpeed="0.00" departDelay="0.00" arrival="326.00" arrivalLane="B3E2_0" arrivalPos="496.00" arrivalSpeed="11.94" duration="196.00" routeLength="1994.90" waitingTime="16.00" waitingCount="1" stopTime="0.00" timeLoss="35.44" rerouteNo="0" devices="tripinfo_5.6" vType="DEFAULT_VEHTYPE" speedFactor="0.90" vaporized=""/>
    <tripinfo id="6.8" depart="42.00" departLane="N1A1_0" departPos="5.10" departSpeed="0.00" departDelay="7.00" arrival="327.00" arrivalLane="B3E2_0" arrivalPos="496.00" arrivalSpeed="12.10" duration="285.00" routeLength="2495.93" waitingTime="39.00" waitingCount="2" stopTime="0.00" timeLoss="92.48" rerouteNo="0" devices="tripinfo_6.8" vType="DEFAULT_VEHTYPE" speedFactor="0.94" vaporized=""/>
    <tripinfo id="6.9" depart="45.00" departLane="N1A1_0" departPos="5.10" departSpeed="0.00" departDelay="5.00" arrival="329.00" arrivalLane="B3E2_0" arrivalPos="496.00" arrivalSpeed="13.71" duration="284.00" routeLength="2495.93" waitingTime="38.00" waitingCount="2" stopTime="0.00" timeLoss="104.81" rerouteNo="0" devices="tripinfo_6.9" vType="DEFAULT_VEHTYPE" speedFactor="1.01" vaporized=""/>
    <tripinfo id="6.10" depart="54.00" departLane="N1A1_0" departPos="5.10" departSpeed="0.00" departDelay="0.00" arrival="333.00" arrivalLane="B3E2_0" arrivalPos="496.00" arrivalSpeed="10.96" duration="279.00" routeLength="2495.93" waitingTime="37.00" waitingCount="2" stopTime="0.00" timeLoss="72.04" rerouteNo="0" devices="tripinfo_6.10" vType="DEFAULT_VEHTYPE" speedFactor="0.87" vaporized=""/>
    <tripinfo id="6.11" depart="59.00" departLane="N1A1_0" departPos="5.10" departSpeed="0.00" departDelay="0.00" arrival="335.00" arrivalLane="B3E2_0" arrivalPos="496.00" arrivalSpeed="12.38" duration="276.00" routeLength="2495.93" waitingTime="36.00" waitingCount="2" stopTime="0.00" timeLoss="78.33" rerouteNo="0" devices="tripinfo_6.11" vType="DEFAULT_VEHTYPE" speedFactor="0.92" vaporized=""/>
    <tripinfo id="6.12" depart="66.00" departLane="N1A1_0" departPos="5.10" departSpeed="0.00" departDelay="1.00" arrival="336.00" arrivalLane="B3E2_0" arrivalPos="496.00" arrivalSpeed="12.72" duration="270.00" routeLength="2495.93" waitingTime="35.00" waitingCount="2" stopTime="0.00" timeLoss="76.46" rerouteNo="0" devices="tripinfo_6.12" vType="DEFAULT_VEHTYPE" speedFactor="0.93" vaporized=""/>
    <tripinfo id="6.13" depart="69.00" departLane="N1A1_0" departPos="5.10" departSpeed="0.00" departDelay="0.00" arrival="338.00" arrivalLane="B3E2_0" arrivalPos="496.00" arrivalSpeed="15.89" duration="269.00" routeLength="2495.93" waitingTime="33.00" waitingCount="2" stopTime="0.00" timeLoss="115.52" rerouteNo="0" devices="tripinfo_6.13" vType="DEFAULT_VEHTYPE" speedFactor="1.18" vaporized=""/>
    <tripinfo id="6.14" depart="72.00" departLane="N1A1_0" departPos="5.10" departSpeed="0.00" departDelay="0.00" arrival="339.00" arrivalLane="B3E2_0" arrivalPos="496.00" arrivalSpeed="15.77" duration="267.00" routeLength="2495.93" waitingTime="31.00" waitingCount="2" stopTime="0.00" timeLoss="110.38" rerouteNo="0" devices="tripinfo_6.14" vType="DEFAULT_VEHTYPE" speedFactor="1.15" vaporized=""/>
    <tripinfo id="5.7" depart="151.00" departLane="W2B1_0" departPos="5.10" departSpeed="0.00" departDelay="0.00" arrival="349.00" arrivalLane="B3E2_0" arrivalPos="496.00" arrivalSpeed="11.70" duration="198.00" routeLength="1994.90" waitingTime="20.00" waitingCount="1" stopTime="0.00" timeLoss="34.94" rerouteNo="0" devices="tripinfo_5.7" vType="DEFAULT_VEHTYPE" speedFactor="0.88" vaporized=""/>
    <tripinfo id="2.12" depart="205.00" departLane="N2A2_0" departPos="5.10" departSpeed="0.00" departDelay="0.00" arrival="352.00" arrivalLane="B2S2_0" arrivalPos="492.80" arrivalSpeed="13.79" duration="147.00" routeLength="1494.90" waitingTime="23.00" waitingCount="2" stopTime="0.00" timeLoss="41.27" rerouteNo="0" devices="tripinfo_2.12" vType="DEFAULT_VEHTYPE" speedFactor="1.02" vaporized=""/>
    <tripinfo id="2.13" depart="219.00" departLane="N2A2_0" departPos="5.10" departSpeed="0.00" departDelay="0.00" arrival="355.00" arrivalLane="B2S2_0" arrivalPos="492.80" arrivalSpeed="12.92" duration="136.00" routeLength="1494.90" waitingTime="15.00" waitingCount="1" stopTime="0.00" timeLoss="29.08" rerouteNo="0" devices="tripinfo_2.13" vType="DEFAULT_VEHTYPE" speedFactor="1.01" vaporized=""/>
    <tripinfo id="1.5" depart="153.00" departLane="N1A1_0" departPos="5.10" departSpeed="0.00" departDelay="10.00" arrival="357.00" arrivalLane="B1S1_0" arrivalPos="492.80" arrivalSpeed="13.52" duration="204.00" routeLength="1494.90" waitingTime="46.00" waitingCount="3" stopTime="0.00" timeLoss="94.57" rerouteNo="0" devices="tripinfo_1.5" vType="DEFAULT_VEHTYPE" speedFactor="0.99" vaporized=""/>
    <tripinfo id="2.14" depart="222.00" departLane="N2A2_0" departPos="5.10" departSpeed="0.00" departDelay="1.00" arrival="357.00" arrivalLane="B2S2_0" arrivalPos="492.80" arrivalSpeed="14.53" duration="135.00" routeLength="1494.90" waitingTime="15.00" waitingCount="1" stopTime="0.00" timeLoss="38.29" rerouteNo="0" devices="tripinfo_2.14" vType="DEFAULT_VEHTYPE" speedFactor="1.12" vaporized=""/>
    <tripinfo id="5.8" depart="177.00" departLane="W2B1_0" departPos="5.10" departSpeed="0.00" departDelay="0.00" arrival="366.00" arrivalLane="B3E2_0" arrivalPos="496.00" arrivalSpeed="13.29" duration="189.00" routeLength="1994.90" waitingTime="21.00" waitingCount="1" stopTime="0.00" timeLoss="49.00" rerouteNo="0" devices="tripinfo_5.8" vType="DEFAULT_VEHTYPE" speedFactor="1.03" vaporized=""/>
    <tripinfo id="5.9" depart="180.00" departLane="W2B1_0" departPos="5.10" departSpeed="0.00" departDelay="2.00" arrival="371.00" arrivalLane="B3E2_0" arrivalPos="496.00" arrivalSpeed="12.86" duration="191.00" routeLength="1994.90" waitingTime="21.00" waitingCount="1" stopTime="0.00" timeLoss="43.88" rerouteNo="0" devices="tripinfo_5.9" vType="DEFAULT_VEHTYPE" speedFactor="0.98" vaporized=""/>
    <tripinfo id="6.15" depart="75.00" departLane="N1A1_0" departPos="5.10" departSpeed="0.00" departDelay="1.00" arrival="372.00" arrivalLane="B3E2_0" arrivalPos="496.00" arrivalSpeed="12.80" duration="297.00" routeLength="2495.93" waitingTime="60.00" waitingCount="4" stopTime="0.00" timeLoss="115.51" rerouteNo="0" devices="tripinfo_6.15" vType="DEFAULT_VEHTYPE" speedFactor="0.99" vaporized=""/>
    <tripinfo id="6.16" depart="79.00" departLane="N1A1_0" departPos="5.10" departSpeed="0.00" departDelay="0.00" arrival="374.00" arrivalLane="B3E2_0" arrivalPos="496.00" arrivalSpeed="13.18" duration="295.00" routeLength="2495.93" waitingTime="59.00" waitingCount="4" stopTime="0.00" timeLoss="117.84" rerouteNo="0" devices="tripinfo_6.16" vType="DEFAULT_VEHTYPE" speedFactor="1.02" vaporized=""/>
    <tripinfo id="6.17" depart="87.00" departLane="N1A1_0" departPos="5.10" departSpeed="0.00" departDelay="0.00" arrival="376.00" arrivalLane="B3E2_0" arrivalPos="496.00" arrivalSpeed="15.20" duration="289.00" routeLength="2495.93" waitingTime="56.00" waitingCount="4" stopTime="0.00" timeLoss="124.78" rerouteNo="0" devices="tripinfo_6.17" vType="DEFAULT_VEHTYPE" speedFactor="1.10" vaporized=""/>
    <tripinfo id="6.18" depart="100.00" departLane="N1A1_0" departPos="5.10" departSpeed="0.00" departDelay="0.00" arrival="377.00" arrivalLane="B3E2_0" arrivalPos="496.00" arrivalSpeed="14.07" duration="277.00" routeLength="2495.93" waitingTime="41.00" waitingCount="3" stopTime="0.00" timeLoss="111.96" rerouteNo="0" devices="tripinfo_6.18" vType="DEFAULT_VEHTYPE" speedFactor="1.09" vaporized=""/>
    <tripinfo id="6.19" depart="108.00" departLane="N1A1_0" departPos="5.10" departSpeed="0.00" departDelay="0.00" arrival="379.00" arrivalLane="B3E2_0" arrivalPos="496.00" arrivalSpeed="13.70" duration="271.00" routeLength="2495.93" waitingTime="40.00" waitingCount="4" stopTime="0.00" timeLoss="97.56" rerouteNo="0" devices="tripinfo_6.19" vType="DEFAULT_VEHTYPE" speedFactor="1.04" vaporized=""/>
