<?xml version="1.0" encoding="UTF-8"?>

<!-- generated on 2022-01-25 08:50:16 by Eclipse SUMO sumo Version 1.10.0
<configuration xmlns:xsi="http://www.w3.org/2001/XMLSchema-instance" xsi:noNamespaceSchemaLocation="http://sumo.dlr.de/xsd/sumoConfiguration.xsd">

    <input>
        <net-file value="C:\Users\Lenovo\Documents\GitHub\Traffic_Simulation\arterial\arterialnet.net.xml"/>
        <route-files value="C:\Users\Lenovo\Documents\GitHub\Traffic_Simulation\arterial\arterialRoutes.xml"/>
        <additional-files value="C:\Users\Lenovo\Documents\GitHub\Traffic_Simulation\arterial\additionals.xml"/>
    </input>

    <output>
        <tripinfo-output value="../tripinfo.xml"/>
        <statistic-output value="../statistics.xml"/>
    </output>

    <report>
        <no-step-log value="true"/>
    </report>

    <traci_server>
        <remote-port value="52009"/>
    </traci_server>

</configuration>
-->

<tripinfos xmlns:xsi="http://www.w3.org/2001/XMLSchema-instance" xsi:noNamespaceSchemaLocation="http://sumo.dlr.de/xsd/tripinfo_file.xsd">
    <tripinfo id="6.0" depart="1.00" departLane="nO_0" departPos="5.10" departSpeed="0.00" departDelay="0.00" arrival="110.00" arrivalLane="Os_0" arrivalPos="492.80" arrivalSpeed="9.75" duration="109.00" routeLength="994.90" waitingTime="0.00" waitingCount="0" stopTime="0.00" timeLoss="9.31" rerouteNo="0" devices="tripinfo_6.0" vType="paperVehicle" speedFactor="1.06" vaporized=""/>
    <tripinfo id="6.1" depart="7.00" departLane="nO_0" departPos="5.10" departSpeed="0.00" departDelay="0.00" arrival="115.00" arrivalLane="Os_0" arrivalPos="492.80" arrivalSpeed="9.60" duration="108.00" routeLength="994.90" waitingTime="0.00" waitingCount="0" stopTime="0.00" timeLoss="7.98" rerouteNo="0" devices="tripinfo_6.1" vType="paperVehicle" speedFactor="1.01" vaporized=""/>
    <tripinfo id="4.0" depart="32.00" departLane="nD_0" departPos="5.10" departSpeed="0.00" departDelay="0.00" arrival="141.00" arrivalLane="Ds_0" arrivalPos="492.80" arrivalSpeed="8.79" duration="109.00" routeLength="994.90" waitingTime="0.00" waitingCount="0" stopTime="0.00" timeLoss="9.50" rerouteNo="0" devices="tripinfo_4.0" vType="paperVehicle" speedFactor="1.05" vaporized=""/>
    <tripinfo id="6.2" depart="68.00" departLane="nO_0" departPos="5.10" departSpeed="0.00" departDelay="0.00" arrival="176.00" arrivalLane="Os_0" arrivalPos="492.80" arrivalSpeed="9.70" duration="108.00" routeLength="994.90" waitingTime="0.00" waitingCount="0" stopTime="0.00" timeLoss="8.43" rerouteNo="0" devices="tripinfo_6.2" vType="paperVehicle" speedFactor="0.93" vaporized=""/>
    <tripinfo id="6.3" depart="76.00" departLane="nO_0" departPos="5.10" departSpeed="0.00" departDelay="0.00" arrival="186.00" arrivalLane="Os_0" arrivalPos="492.80" arrivalSpeed="9.93" duration="110.00" routeLength="994.90" waitingTime="0.00" waitingCount="0" stopTime="0.00" timeLoss="9.97" rerouteNo="0" devices="tripinfo_6.3" vType="paperVehicle" speedFactor="0.88" vaporized=""/>
    <tripinfo id="6.4" depart="79.00" departLane="nO_0" departPos="5.10" departSpeed="0.00" departDelay="2.00" arrival="188.00" arrivalLane="Os_0" arrivalPos="492.80" arrivalSpeed="8.86" duration="109.00" routeLength="994.90" waitingTime="0.00" waitingCount="0" stopTime="0.00" timeLoss="9.22" rerouteNo="0" devices="tripinfo_6.4" vType="paperVehicle" speedFactor="0.94" vaporized=""/>
    <tripinfo id="2.0" depart="93.00" departLane="nB_0" departPos="5.10" departSpeed="0.00" departDelay="0.00" arrival="202.00" arrivalLane="Bs_0" arrivalPos="492.80" arrivalSpeed="9.16" duration="109.00" routeLength="994.90" waitingTime="0.00" waitingCount="0" stopTime="0.00" timeLoss="9.07" rerouteNo="0" devices="tripinfo_2.0" vType="paperVehicle" speedFactor="0.98" vaporized=""/>
    <tripinfo id="4.1" depart="94.00" departLane="nD_0" departPos="5.10" departSpeed="0.00" departDelay="0.00" arrival="204.00" arrivalLane="Ds_0" arrivalPos="492.80" arrivalSpeed="8.99" duration="110.00" routeLength="994.90" waitingTime="0.00" waitingCount="0" stopTime="0.00" timeLoss="10.21" rerouteNo="0" devices="tripinfo_4.1" vType="paperVehicle" speedFactor="0.89" vaporized=""/>
    <tripinfo id="2.1" depart="96.00" departLane="nB_0" departPos="5.10" departSpeed="0.00" departDelay="1.00" arrival="204.00" arrivalLane="Bs_0" arrivalPos="492.80" arrivalSpeed="8.91" duration="108.00" routeLength="994.90" waitingTime="0.00" waitingCount="0" stopTime="0.00" timeLoss="8.30" rerouteNo="0" devices="tripinfo_2.1" vType="paperVehicle" speedFactor="0.83" vaporized=""/>
    <tripinfo id="4.2" depart="106.00" departLane="nD_0" departPos="5.10" departSpeed="0.00" departDelay="0.00" arrival="214.00" arrivalLane="Ds_0" arrivalPos="492.80" arrivalSpeed="9.45" duration="108.00" routeLength="994.90" waitingTime="0.00" waitingCount="0" stopTime="0.00" timeLoss="8.34" rerouteNo="0" devices="tripinfo_4.2" vType="paperVehicle" speedFactor="0.93" vaporized=""/>
    <tripinfo id="1.0" depart="110.00" departLane="nA_0" departPos="5.10" departSpeed="0.00" departDelay="0.00" arrival="220.00" arrivalLane="As_0" arrivalPos="492.80" arrivalSpeed="9.01" duration="110.00" routeLength="994.90" waitingTime="0.00" waitingCount="0" stopTime="0.00" timeLoss="10.17" rerouteNo="0" devices="tripinfo_1.0" vType="paperVehicle" speedFactor="1.17" vaporized=""/>
    <tripinfo id="6.5" depart="82.00" departLane="nO_0" departPos="5.10" departSpeed="0.00" departDelay="0.00" arrival="224.00" arrivalLane="Os_0" arrivalPos="492.80" arrivalSpeed="8.84" duration="142.00" routeLength="994.90" waitingTime="30.00" waitingCount="1" stopTime="0.00" timeLoss="42.36" rerouteNo="0" devices="tripinfo_6.5" vType="paperVehicle" speedFactor="1.16" vaporized=""/>
    <tripinfo id="6.6" depart="86.00" departLane="nO_0" departPos="5.10" departSpeed="0.00" departDelay="0.00" arrival="227.00" arrivalLane="Os_0" arrivalPos="492.80" arrivalSpeed="8.80" duration="141.00" routeLength="994.90" waitingTime="28.00" waitingCount="1" stopTime="0.00" timeLoss="41.02" rerouteNo="0" devices="tripinfo_6.6" vType="paperVehicle" speedFactor="1.02" vaporized=""/>
    <tripinfo id="6.7" depart="89.00" departLane="nO_0" departPos="5.10" departSpeed="0.00" departDelay="0.00" arrival="229.00" arrivalLane="Os_0" arrivalPos="492.80" arrivalSpeed="9.38" duration="140.00" routeLength="994.90" waitingTime="27.00" waitingCount="1" stopTime="0.00" timeLoss="40.01" rerouteNo="0" devices="tripinfo_6.7" vType="paperVehicle" speedFactor="1.01" vaporized=""/>
    <tripinfo id="6.8" depart="99.00" departLane="nO_0" departPos="5.10" departSpeed="0.00" departDelay="0.00" arrival="231.00" arrivalLane="Os_0" arrivalPos="492.80" arrivalSpeed="9.23" duration="132.00" routeLength="994.90" waitingTime="19.00" waitingCount="1" stopTime="0.00" timeLoss="32.41" rerouteNo="0" devices="tripinfo_6.8" vType="paperVehicle" speedFactor="0.92" vaporized=""/>
    <tripinfo id="6.9" depart="102.00" departLane="nO_0" departPos="5.10" departSpeed="0.00" departDelay="1.00" arrival="234.00" arrivalLane="Os_0" arrivalPos="492.80" arrivalSpeed="8.73" duration="132.00" routeLength="994.90" waitingTime="17.00" waitingCount="1" stopTime="0.00" timeLoss="31.74" rerouteNo="0" devices="tripinfo_6.9" vType="paperVehicle" speedFactor="0.95" vaporized=""/>
    <tripinfo id="6.10" depart="105.00" departLane="nO_0" departPos="5.10" departSpeed="0.00" departDelay="1.00" arrival="236.00" arrivalLane="Os_0" arrivalPos="492.80" arrivalSpeed="9.75" duration="131.00" routeLength="994.90" waitingTime="16.00" waitingCount="1" stopTime="0.00" timeLoss="30.72" rerouteNo="0" devices="tripinfo_6.10" vType="paperVehicle" speedFactor="1.13" vaporized=""/>
    <tripinfo id="6.11" depart="118.00" departLane="nO_0" departPos="5.10" departSpeed="0.00" departDelay="0.00" arrival="238.00" arrivalLane="Os_0" arrivalPos="492.80" arrivalSpeed="9.18" duration="120.00" routeLength="994.90" waitingTime="5.00" waitingCount="1" stopTime="0.00" timeLoss="20.42" rerouteNo="0" devices="tripinfo_6.11" vType="paperVehicle" speedFactor="1.02" vaporized=""/>
    <tripinfo id="6.12" depart="127.00" departLane="nO_0" departPos="5.10" departSpeed="0.00" departDelay="0.00" arrival="240.00" arrivalLane="Os_0" arrivalPos="492.80" arrivalSpeed="9.37" duration="113.00" routeLength="994.90" waitingTime="0.00" waitingCount="0" stopTime="0.00" timeLoss="13.42" rerouteNo="0" devices="tripinfo_6.12" vType="paperVehicle" speedFactor="1.03" vaporized=""/>
    <tripinfo id="2.2" depart="108.00" departLane="nB_0" departPos="5.10" departSpeed="0.00" departDelay="0.00" arrival="241.00" arrivalLane="Bs_0" arrivalPos="492.80" arrivalSpeed="9.88" duration="133.00" routeLength="994.90" waitingTime="21.00" waitingCount="1" stopTime="0.00" timeLoss="32.95" rerouteNo="0" devices="tripinfo_2.2" vType="paperVehicle" speedFactor="1.18" vaporized=""/>
    <tripinfo id="2.3" depart="111.00" departLane="nB_0" departPos="5.10" departSpeed="0.00" departDelay="2.00" arrival="243.00" arrivalLane="Bs_0" arrivalPos="492.80" arrivalSpeed="9.25" duration="132.00" routeLength="994.90" waitingTime="20.00" waitingCount="1" stopTime="0.00" timeLoss="32.40" rerouteNo="0" devices="tripinfo_2.3" vType="paperVehicle" speedFactor="1.01" vaporized=""/>
    <tripinfo id="2.4" depart="114.00" departLane="nB_0" departPos="5.10" departSpeed="0.00" departDelay="1.00" arrival="246.00" arrivalLane="Bs_0" arrivalPos="492.80" arrivalSpeed="8.74" duration="132.00" routeLength="994.90" waitingTime="16.00" waitingCount="1" stopTime="0.00" timeLoss="31.80" rerouteNo="0" devices="tripinfo_2.4" vType="paperVehicle" speedFactor="0.99" vaporized=""/>
    <tripinfo id="4.3" depart="137.00" departLane="nD_0" departPos="5.10" departSpeed="0.00" departDelay="0.00" arrival="246.00" arrivalLane="Ds_0" arrivalPos="492.80" arrivalSpeed="9.16" duration="109.00" routeLength="994.90" waitingTime="0.00" waitingCount="0" stopTime="0.00" timeLoss="8.79" rerouteNo="0" devices="tripinfo_4.3" vType="paperVehicle" speedFactor="1.04" vaporized=""/>
    <tripinfo id="4.4" depart="148.00" departLane="nD_0" departPos="5.10" departSpeed="0.00" departDelay="0.00" arrival="257.00" arrivalLane="Ds_0" arrivalPos="492.80" arrivalSpeed="9.43" duration="109.00" routeLength="994.90" waitingTime="0.00" waitingCount="0" stopTime="0.00" timeLoss="8.84" rerouteNo="0" devices="tripinfo_4.4" vType="paperVehicle" speedFactor="1.00" vaporized=""/>
    <tripinfo id="2.5" depart="155.00" departLane="nB_0" departPos="5.10" departSpeed="0.00" departDelay="0.00" arrival="265.00" arrivalLane="Bs_0" arrivalPos="492.80" arrivalSpeed="8.77" duration="110.00" routeLength="994.90" waitingTime="0.00" waitingCount="0" stopTime="0.00" timeLoss="9.69" rerouteNo="0" devices="tripinfo_2.5" vType="paperVehicle" speedFactor="0.90" vaporized=""/>
    <tripinfo id="3.0" depart="187.00" departLane="nC_0" departPos="5.10" departSpeed="0.00" departDelay="0.00" arrival="295.00" arrivalLane="Cs_0" arrivalPos="492.80" arrivalSpeed="9.70" duration="108.00" routeLength="994.90" waitingTime="0.00" waitingCount="0" stopTime="0.00" timeLoss="8.47" rerouteNo="0" devices="tripinfo_3.0" vType="paperVehicle" speedFactor="0.90" vaporized=""/>
    <tripinfo id="6.13" depart="174.00" departLane="nO_0" departPos="5.10" departSpeed="0.00" departDelay="0.00" arrival="296.00" arrivalLane="Os_0" arrivalPos="492.80" arrivalSpeed="9.07" duration="122.00" routeLength="994.90" waitingTime="9.00" waitingCount="1" stopTime="0.00" timeLoss="22.05" rerouteNo="0" devices="tripinfo_6.13" vType="paperVehicle" speedFactor="0.85" vaporized=""/>
    <tripinfo id="6.14" depart="183.00" departLane="nO_0" departPos="5.10" departSpeed="0.00" departDelay="0.00" arrival="298.00" arrivalLane="Os_0" arrivalPos="492.80" arrivalSpeed="9.37" duration="115.00" routeLength="994.90" waitingTime="1.00" waitingCount="1" stopTime="0.00" timeLoss="15.15" rerouteNo="0" devices="tripinfo_6.14" vType="paperVehicle" speedFactor="1.10" vaporized=""/>
    <tripinfo id="2.6" depart="179.00" departLane="nB_0" departPos="5.10" departSpeed="0.00" departDelay="0.00" arrival="305.00" arrivalLane="Bs_0" arrivalPos="492.80" arrivalSpeed="8.70" duration="126.00" routeLength="994.90" waitingTime="12.00" waitingCount="1" stopTime="0.00" timeLoss="25.68" rerouteNo="0" devices="tripinfo_2.6" vType="paperVehicle" speedFactor="1.17" vaporized=""/>
    <tripinfo id="3.1" depart="197.00" departLane="nC_0" departPos="5.10" departSpeed="0.00" departDelay="0.00" arrival="305.00" arrivalLane="Cs_0" arrivalPos="492.80" arrivalSpeed="9.91" duration="108.00" routeLength="994.90" waitingTime="0.00" waitingCount="0" stopTime="0.00" timeLoss="8.33" rerouteNo="0" devices="tripinfo_3.1" vType="paperVehicle" speedFactor="0.97" vaporized=""/>
    <tripinfo id="2.7" depart="183.00" departLane="nB_0" departPos="5.10" departSpeed="0.00" departDelay="0.00" arrival="307.00" arrivalLane="Bs_0" arrivalPos="492.80" arrivalSpeed="9.96" duration="124.00" routeLength="994.90" waitingTime="10.00" waitingCount="1" stopTime="0.00" timeLoss="23.61" rerouteNo="0" devices="tripinfo_2.7" vType="paperVehicle" speedFactor="1.02" vaporized=""/>
    <tripinfo id="6.15" depart="201.00" departLane="nO_0" departPos="5.10" departSpeed="0.00" departDelay="0.00" arrival="310.00" arrivalLane="Os_0" arrivalPos="492.80" arrivalSpeed="9.96" duration="109.00" routeLength="994.90" waitingTime="0.00" waitingCount="0" stopTime="0.00" timeLoss="8.54" rerouteNo="0" devices="tripinfo_6.15" vType="paperVehicle" speedFactor="1.12" vaporized=""/>
    <tripinfo id="6.16" depart="210.00" departLane="nO_0" departPos="5.10" departSpeed="0.00" departDelay="0.00" arrival="318.00" arrivalLane="Os_0" arrivalPos="492.80" arrivalSpeed="9.94" duration="108.00" routeLength="994.90" waitingTime="0.00" waitingCount="0" stopTime="0.00" timeLoss="8.50" rerouteNo="0" devices="tripinfo_6.16" vType="paperVehicle" speedFactor="1.02" vaporized=""/>
    <tripinfo id="1.1" depart="201.00" departLane="nA_0" departPos="5.10" departSpeed="0.00" departDelay="0.00" arrival="322.00" arrivalLane="As_0" arrivalPos="492.80" arrivalSpeed="9.02" duration="121.00" routeLength="994.90" waitingTime="8.00" waitingCount="1" stopTime="0.00" timeLoss="20.73" rerouteNo="0" devices="tripinfo_1.1" vType="paperVehicle" speedFactor="1.08" vaporized=""/>
    <tripinfo id="6.17" depart="219.00" departLane="nO_0" departPos="5.10" departSpeed="0.00" departDelay="0.00" arrival="329.00" arrivalLane="Os_0" arrivalPos="492.80" arrivalSpeed="9.07" duration="110.00" routeLength="994.90" waitingTime="0.00" waitingCount="0" stopTime="0.00" timeLoss="10.01" rerouteNo="0" devices="tripinfo_6.17" vType="paperVehicle" speedFactor="0.94" vaporized=""/>
    <tripinfo id="5.0" depart="3.00" departLane="wO_0" departPos="5.10" departSpeed="0.00" departDelay="0.00" arrival="379.00" arrivalLane="De_0" arrivalPos="496.00" arrivalSpeed="9.18" duration="376.00" routeLength="2994.90" waitingTime="46.00" waitingCount="2" stopTime="0.00" timeLoss="76.31" rerouteNo="0" devices="tripinfo_5.0" vType="paperVehicle" speedFactor="0.94" vaporized=""/>
    <tripinfo id="5.1" depart="15.00" departLane="wO_0" departPos="5.10" departSpeed="0.00" departDelay="0.00" arrival="381.00" arrivalLane="De_0" arrivalPos="496.00" arrivalSpeed="9.16" duration="366.00" routeLength="2994.90" waitingTime="35.00" waitingCount="2" stopTime="0.00" timeLoss="66.51" rerouteNo="0" devices="tripinfo_5.1" vType="paperVehicle" speedFactor="1.08" vaporized=""/>
    <tripinfo id="5.2" depart="18.00" departLane="wO_0" departPos="5.10" departSpeed="0.00" departDelay="1.00" arrival="384.00" arrivalLane="De_0" arrivalPos="496.00" arrivalSpeed="9.72" duration="366.00" routeLength="2994.90" waitingTime="34.00" waitingCount="2" stopTime="0.00" timeLoss="66.06" rerouteNo="0" devices="tripinfo_5.2" vType="paperVehicle" speedFactor="1.03" vaporized=""/>
    <tripinfo id="5.3" depart="21.00" departLane="wO_0" departPos="5.10" departSpeed="0.00" departDelay="2.00" arrival="386.00" arrivalLane="De_0" arrivalPos="496.00" arrivalSpeed="9.35" duration="365.00" routeLength="2994.90" waitingTime="32.00" waitingCount="2" stopTime="0.00" timeLoss="65.42" rerouteNo="0" devices="tripinfo_5.3" vType="paperVehicle" speedFactor="0.83" vaporized=""/>
    <tripinfo id="5.4" depart="35.00" departLane="wO_0" departPos="5.10" departSpeed="0.00" departDelay="0.00" arrival="389.00" arrivalLane="De_0" arrivalPos="496.00" arrivalSpeed="8.73" duration="354.00" routeLength="2994.90" waitingTime="25.00" waitingCount="1" stopTime="0.00" timeLoss="54.50" rerouteNo="0" devices="tripinfo_5.4" vType="paperVehicle" speedFactor="0.89" vaporized=""/>
    <tripinfo id="5.5" depart="38.00" departLane="wO_0" departPos="5.10" departSpeed="0.00" departDelay="1.00" arrival="392.00" arrivalLane="De_0" arrivalPos="496.00" arrivalSpeed="9.02" duration="354.00" routeLength="2994.90" waitingTime="24.00" waitingCount="1" stopTime="0.00" timeLoss="53.64" rerouteNo="0" devices="tripinfo_5.5" vType="paperVehicle" speedFactor="0.94" vaporized=""/>
    <tripinfo id="6.18" depart="232.00" departLane="nO_0" departPos="5.10" departSpeed="0.00" departDelay="0.00" arrival="392.00" arrivalLane="Os_0" arrivalPos="492.80" arrivalSpeed="9.09" duration="160.00" routeLength="994.90" waitingTime="47.00" waitingCount="1" stopTime="0.00" timeLoss="60.51" rerouteNo="0" devices="tripinfo_6.18" vType="paperVehicle" speedFactor="0.91" vaporized=""/>
    <tripinfo id="5.6" depart="41.00" departLane="wO_0" departPos="5.10" departSpeed="0.00" departDelay="3.00" arrival="394.00" arrivalLane="De_0" arrivalPos="496.00" arrivalSpeed="9.58" duration="353.00" routeLength="2994.90" waitingTime="23.00" waitingCount="1" stopTime="0.00" timeLoss="52.89" rerouteNo="0" devices="tripinfo_5.6" vType="paperVehicle" speedFactor="0.86" vaporized=""/>
    <tripinfo id="6.19" depart="243.00" departLane="nO_0" departPos="5.10" departSpeed="0.00" departDelay="0.00" arrival="394.00" arrivalLane="Os_0" arrivalPos="492.80" arrivalSpeed="10.00" duration="151.00" routeLength="994.90" waitingTime="37.00" waitingCount="1" stopTime="0.00" timeLoss="51.45" rerouteNo="0" devices="tripinfo_6.19" vType="paperVehicle" speedFactor="1.04" vaporized=""/>
    <tripinfo id="5.7" depart="44.00" departLane="wO_0" departPos="5.10" departSpeed="0.00" departDelay="4.00" arrival="396.00" arrivalLane="De_0" arrivalPos="496.00" arrivalSpeed="9.51" duration="352.00" routeLength="2994.90" waitingTime="21.00" waitingCount="1" stopTime="0.00" timeLoss="52.34" rerouteNo="0" devices="tripinfo_5.7" vType="paperVehicle" speedFactor="1.09" vaporized=""/>
    <tripinfo id="6.20" depart="246.00" departLane="nO_0" departPos="5.10" departSpeed="0.00" departDelay="0.00" arrival="397.00" arrivalLane="Os_0" arrivalPos="492.80" arrivalSpeed="9.55" duration="151.00" routeLength="994.90" waitingTime="36.00" waitingCount="1" stopTime="0.00" timeLoss="50.69" rerouteNo="0" devices="tripinfo_6.20" vType="paperVehicle" speedFactor="0.97" vaporized=""/>
    <tripinfo id="6.21" depart="250.00" departLane="nO_0" departPos="5.10" departSpeed="0.00" departDelay="0.00" arrival="399.00" arrivalLane="Os_0" arrivalPos="492.80" arrivalSpeed="9.17" duration="149.00" routeLength="994.90" waitingTime="34.00" waitingCount="1" stopTime="0.00" timeLoss="49.09" rerouteNo="0" devices="tripinfo_6.21" vType="paperVehicle" speedFactor="1.06" vaporized=""/>
    <tripinfo id="5.8" depart="48.00" departLane="wO_0" departPos="5.10" departSpeed="0.00" departDelay="0.00" arrival="401.00" arrivalLane="De_0" arrivalPos="496.00" arrivalSpeed="9.86" duration="353.00" routeLength="2994.90" waitingTime="26.00" waitingCount="1" stopTime="0.00" timeLoss="52.60" rerouteNo="0" devices="tripinfo_5.8" vType="paperVehicle" speedFactor="1.03" vaporized=""/>
    <tripinfo id="6.22" depart="256.00" departLane="nO_0" departPos="5.10" departSpeed="0.00" departDelay="0.00" arrival="401.00" arrivalLane="Os_0" arrivalPos="492.80" arrivalSpeed="9.07" duration="145.00" routeLength="994.90" waitingTime="30.00" waitingCount="1" stopTime="0.00" timeLoss="45.32" rerouteNo="0" devices="tripinfo_6.22" vType="paperVehicle" speedFactor="0.96" vaporized=""/>
    <tripinfo id="6.23" depart="269.00" departLane="nO_0" departPos="5.10" departSpeed="0.00" departDelay="0.00" arrival="403.00" arrivalLane="Os_0" arrivalPos="492.80" arrivalSpeed="8.87" duration="134.00" routeLength="994.90" waitingTime="20.00" waitingCount="1" stopTime="0.00" timeLoss="34.38" rerouteNo="0" devices="tripinfo_6.23" vType="paperVehicle" speedFactor="0.98" vaporized=""/>
    <tripinfo id="5.9" depart="55.00" departLane="wO_0" departPos="5.10" departSpeed="0.00" departDelay="0.00" arrival="404.00" arrivalLane="De_0" arrivalPos="496.00" arrivalSpeed="8.94" duration="349.00" routeLength="2994.90" waitingTime="21.00" waitingCount="1" stopTime="0.00" timeLoss="48.81" rerouteNo="0" devices="tripinfo_5.9" vType="paperVehicle" speedFactor="1.05" vaporized=""/>
    <tripinfo id="1.2" depart="264.00" departLane="nA_0" departPos="5.10" departSpeed="0.00" departDelay="0.00" arrival="410.00" arrivalLane="As_0" arrivalPos="492.80" arrivalSpeed="9.00" duration="146.00" routeLength="994.90" waitingTime="34.00" waitingCount="1" stopTime="0.00" timeLoss="46.21" rerouteNo="0" devices="tripinfo_1.2" vType="paperVehicle" speedFactor="1.03" vaporized=""/>
    <tripinfo id="3.2" depart="324.00" departLane="nC_0" departPos="5.10" departSpeed="0.00" departDelay="0.00" arrival="433.00" arrivalLane="Cs_0" arrivalPos="492.80" arrivalSpeed="9.40" duration="109.00" routeLength="994.90" waitingTime="0.00" waitingCount="0" stopTime="0.00" timeLoss="8.75" rerouteNo="0" devices="tripinfo_3.2" vType="paperVehicle" speedFactor="1.02" vaporized=""/>
    <tripinfo id="5.10" depart="63.00" departLane="wO_0" departPos="5.10" departSpeed="0.00" departDelay="0.00" arrival="436.00" arrivalLane="De_0" arrivalPos="496.00" arrivalSpeed="9.81" duration="373.00" routeLength="2994.90" waitingTime="43.00" waitingCount="2" stopTime="0.00" timeLoss="73.49" rerouteNo="0" devices="tripinfo_5.10" vType="paperVehicle" speedFactor="1.12" vaporized=""/>
    <tripinfo id="5.11" depart="66.00" departLane="wO_0" departPos="5.10" departSpeed="0.00" departDelay="2.00" arrival="439.00" arrivalLane="De_0" arrivalPos="496.00" arrivalSpeed="9.79" duration="373.00" routeLength="2994.90" waitingTime="40.00" waitingCount="2" stopTime="0.00" timeLoss="73.06" rerouteNo="0" devices="tripinfo_5.11" vType="paperVehicle" speedFactor="0.99" vaporized=""/>
    <tripinfo id="5.12" depart="80.00" departLane="wO_0" departPos="5.10" departSpeed="0.00" departDelay="0.00" arrival="442.00" arrivalLane="De_0" arrivalPos="496.00" arrivalSpeed="9.45" duration="362.00" routeLength="2994.90" waitingTime="28.00" waitingCount="2" stopTime="0.00" timeLoss="62.08" rerouteNo="0" devices="tripinfo_5.12" vType="paperVehicle" speedFactor="0.94" vaporized=""/>
    <tripinfo id="5.13" depart="98.00" departLane="wO_0" departPos="5.10" departSpeed="0.00" departDelay="0.00" arrival="444.00" arrivalLane="De_0" arrivalPos="496.00" arrivalSpeed="9.08" duration="346.00" routeLength="2994.90" waitingTime="17.00" waitingCount="1" stopTime="0.00" timeLoss="46.34" rerouteNo="0" devices="tripinfo_5.13" vType="paperVehicle" speedFactor="0.87" vaporized=""/>
    <tripinfo id="5.14" depart="108.00" departLane="wO_0" departPos="5.10" departSpeed="0.00" departDelay="0.00" arrival="447.00" arrivalLane="De_0" arrivalPos="496.00" arrivalSpeed="9.41" duration="339.00" routeLength="2994.90" waitingTime="10.00" waitingCount="1" stopTime="0.00" timeLoss="38.61" rerouteNo="0" devices="tripinfo_5.14" vType="paperVehicle" speedFactor="1.15" vaporized=""/>
    <tripinfo id="6.24" depart="309.00" departLane="nO_0" departPos="5.10" departSpeed="0.00" departDelay="0.00" arrival="448.00" arrivalLane="Os_0" arrivalPos="492.80" arrivalSpeed="9.09" duration="139.00" routeLength="994.90" waitingTime="27.00" waitingCount="1" stopTime="0.00" timeLoss="39.01" rerouteNo="0" devices="tripinfo_6.24" vType="paperVehicle" speedFactor="1.00" vaporized=""/>
    <tripinfo id="6.25" depart="315.00" departLane="nO_0" departPos="5.10" departSpeed="0.00" departDelay="0.00" arrival="450.00" arrivalLane="Os_0" arrivalPos="492.80" arrivalSpeed="9.88" duration="135.00" routeLength="994.90" waitingTime="23.00" waitingCount="1" stopTime="0.00" timeLoss="35.27" rerouteNo="0" devices="tripinfo_6.25" vType="paperVehicle" speedFactor="1.04" vaporized=""/>
    <tripinfo id="2.8" depart="334.00" departLane="nB_0" departPos="5.10" departSpeed="0.00" departDelay="0.00" arrival="450.00" arrivalLane="Bs_0" arrivalPos="492.80" arrivalSpeed="9.99" duration="116.00" routeLength="994.90" waitingTime="3.00" waitingCount="1" stopTime="0.00" timeLoss="15.67" rerouteNo="0" devices="tripinfo_2.8" vType="paperVehicle" speedFactor="0.89" vaporized=""/>
    <tripinfo id="6.26" depart="318.00" departLane="nO_0" departPos="5.10" departSpeed="0.00" departDelay="0.00" arrival="453.00" arrivalLane="Os_0" arrivalPos="492.80" arrivalSpeed="9.70" duration="135.00" routeLength="994.90" waitingTime="20.00" waitingCount="1" stopTime="0.00" timeLoss="34.91" rerouteNo="0" devices="tripinfo_6.26" vType="paperVehicle" speedFactor="1.01" vaporized=""/>
    <tripinfo id="6.27" depart="327.00" departLane="nO_0" departPos="5.10" departSpeed="0.00" departDelay="0.00" arrival="455.00" arrivalLane="Os_0" arrivalPos="492.80" arrivalSpeed="8.70" duration="128.00" routeLength="994.90" waitingTime="13.00" waitingCount="1" stopTime="0.00" timeLoss="28.39" rerouteNo="0" devices="tripinfo_6.27" vType="paperVehicle" speedFactor="1.02" vaporized=""/>
    <tripinfo id="4.5" depart="351.00" departLane="nD_0" departPos="5.10" departSpeed="0.00" departDelay="0.00" arrival="466.00" arrivalLane="Ds_0" arrivalPos="492.80" arrivalSpeed="9.20" duration="115.00" routeLength="994.90" waitingTime="3.00" waitingCount="1" stopTime="0.00" timeLoss="15.03" rerouteNo="0" devices="tripinfo_4.5" vType="paperVehicle" speedFactor="0.83" vaporized=""/>
    <tripinfo id="6.28" depart="361.00" departLane="nO_0" departPos="5.10" departSpeed="0.00" departDelay="0.00" arrival="470.00" arrivalLane="Os_0" arrivalPos="492.80" arrivalSpeed="8.89" duration="109.00" routeLength="994.90" waitingTime="0.00" waitingCount="0" stopTime="0.00" timeLoss="8.77" rerouteNo="0" devices="tripinfo_6.28" vType="paperVehicle" speedFactor="0.91" vaporized=""/>
    <tripinfo id="3.3" depart="358.00" departLane="nC_0" departPos="5.10" departSpeed="0.00" departDelay="0.00" arrival="481.00" arrivalLane="Cs_0" arrivalPos="492.80" arrivalSpeed="8.77" duration="123.00" routeLength="994.90" waitingTime="11.00" waitingCount="1" stopTime="0.00" timeLoss="23.24" rerouteNo="0" devices="tripinfo_3.3" vType="paperVehicle" speedFactor="1.09" vaporized=""/>
    <tripinfo id="5.15" depart="120.00" departLane="wO_0" departPos="5.10" departSpeed="0.00" departDelay="0.00" arrival="491.00" arrivalLane="De_0" arrivalPos="496.00" arrivalSpeed="9.34" duration="371.00" routeLength="2994.90" waitingTime="39.00" waitingCount="2" stopTime="0.00" timeLoss="70.69" rerouteNo="0" devices="tripinfo_5.15" vType="paperVehicle" speedFactor="0.97" vaporized=""/>
    <tripinfo id="5.16" depart="123.00" departLane="wO_0" departPos="5.10" departSpeed="0.00" departDelay="0.00" arrival="493.00" arrivalLane="De_0" arrivalPos="496.00" arrivalSpeed="9.30" duration="370.00" routeLength="2994.90" waitingTime="35.00" waitingCount="2" stopTime="0.00" timeLoss="70.01" rerouteNo="0" devices="tripinfo_5.16" vType="paperVehicle" speedFactor="1.18" vaporized=""/>
    <tripinfo id="5.17" depart="126.00" departLane="wO_0" departPos="5.10" departSpeed="0.00" departDelay="2.00" arrival="495.00" arrivalLane="De_0" arrivalPos="496.00" arrivalSpeed="9.33" duration="369.00" routeLength="2994.90" waitingTime="34.00" waitingCount="2" stopTime="0.00" timeLoss="69.19" rerouteNo="0" devices="tripinfo_5.17" vType="paperVehicle" speedFactor="1.10" vaporized=""/>
    <tripinfo id="5.18" depart="129.00" departLane="wO_0" departPos="5.10" departSpeed="0.00" departDelay="4.00" arrival="498.00" arrivalLane="De_0" arrivalPos="496.00" arrivalSpeed="9.44" duration="369.00" routeLength="2994.90" waitingTime="31.00" waitingCount="2" stopTime="0.00" timeLoss="68.71" rerouteNo="0" devices="tripinfo_5.18" vType="paperVehicle" speedFactor="0.90" vaporized=""/>
    <tripinfo id="5.19" depart="132.00" departLane="wO_0" departPos="5.10" departSpeed="0.00" departDelay="4.00" arrival="500.00" arrivalLane="De_0" arrivalPos="496.00" arrivalSpeed="9.97" duration="368.00" routeLength="2994.90" waitingTime="30.00" waitingCount="2" stopTime="0.00" timeLoss="67.78" rerouteNo="0" devices="tripinfo_5.19" vType="paperVehicle" speedFactor="0.96" vaporized=""/>
    <tripinfo id="5.20" depart="136.00" departLane="wO_0" departPos="5.10" departSpeed="0.00" departDelay="0.00" arrival="502.00" arrivalLane="De_0" arrivalPos="496.00" arrivalSpeed="9.78" duration="366.00" routeLength="2994.90" waitingTime="26.00" waitingCount="2" stopTime="0.00" timeLoss="66.03" rerouteNo="0" devices="tripinfo_5.20" vType="paperVehicle" speedFactor="1.09" vaporized=""/>
    <tripinfo id="2.9" depart="382.00" departLane="nB_0" departPos="5.10" departSpeed="0.00" departDelay="0.00" arrival="509.00" arrivalLane="Bs_0" arrivalPos="492.80" arrivalSpeed="9.42" duration="127.00" routeLength="994.90" waitingTime="15.00" waitingCount="1" stopTime="0.00" timeLoss="26.90" rerouteNo="0" devices="tripinfo_2.9" vType="paperVehicle" speedFactor="1.12" vaporized=""/>
    <tripinfo id="5.21" depart="141.00" departLane="wO_0" departPos="5.10" departSpeed="0.00" departDelay="0.00" arrival="510.00" arrivalLane="De_0" arrivalPos="496.00" arrivalSpeed="9.49" duration="369.00" routeLength="2994.90" waitingTime="32.00" waitingCount="2" stopTime="0.00" timeLoss="68.65" rerouteNo="0" devices="tripinfo_5.21" vType="paperVehicle" speedFactor="1.04" vaporized=""/>