<?xml version="1.0" encoding="UTF-8"?>

<!-- generated on 2022-01-24 13:12:19 by Eclipse SUMO sumo Version 1.10.0
<configuration xmlns:xsi="http://www.w3.org/2001/XMLSchema-instance" xsi:noNamespaceSchemaLocation="http://sumo.dlr.de/xsd/sumoConfiguration.xsd">

    <input>
        <net-file value="C:\Users\Lenovo\Documents\GitHub\Traffic_Simulation\arterial\arterialnet.net.xml"/>
        <route-files value="C:\Users\Lenovo\Documents\GitHub\Traffic_Simulation\arterial\arterialRoutes.xml"/>
        <additional-files value="C:\Users\Lenovo\Documents\GitHub\Traffic_Simulation\arterial\additionals.xml"/>
    </input>

    <output>
        <tripinfo-output value="../tripinfo.xml"/>
        <statistic-output value="../statistics.xml"/>
    </output>

    <report>
        <no-step-log value="true"/>
    </report>

    <traci_server>
        <remote-port value="54200"/>
    </traci_server>

</configuration>
-->

<tripinfos xmlns:xsi="http://www.w3.org/2001/XMLSchema-instance" xsi:noNamespaceSchemaLocation="http://sumo.dlr.de/xsd/tripinfo_file.xsd">
    <tripinfo id="1.0" depart="5.00" departLane="nA_0" departPos="5.10" departSpeed="0.00" departDelay="0.00" arrival="115.00" arrivalLane="As_0" arrivalPos="492.80" arrivalSpeed="8.78" duration="110.00" routeLength="994.90" waitingTime="0.00" waitingCount="0" stopTime="0.00" timeLoss="9.79" rerouteNo="0" devices="tripinfo_1.0" vType="paperVehicle" speedFactor="1.01" vaporized=""/>
    <tripinfo id="3.0" depart="12.00" departLane="nC_0" departPos="5.10" departSpeed="0.00" departDelay="0.00" arrival="120.00" arrivalLane="Cs_0" arrivalPos="492.80" arrivalSpeed="9.67" duration="108.00" routeLength="994.90" waitingTime="0.00" waitingCount="0" stopTime="0.00" timeLoss="8.36" rerouteNo="0" devices="tripinfo_3.0" vType="paperVehicle" speedFactor="0.83" vaporized=""/>
    <tripinfo id="1.1" depart="14.00" departLane="nA_0" departPos="5.10" departSpeed="0.00" departDelay="0.00" arrival="124.00" arrivalLane="As_0" arrivalPos="492.80" arrivalSpeed="9.02" duration="110.00" routeLength="994.90" waitingTime="0.00" waitingCount="0" stopTime="0.00" timeLoss="9.83" rerouteNo="0" devices="tripinfo_1.1" vType="paperVehicle" speedFactor="1.05" vaporized=""/>
    <tripinfo id="6.0" depart="3.00" departLane="nO_0" departPos="5.10" departSpeed="0.00" departDelay="0.00" arrival="149.00" arrivalLane="Os_0" arrivalPos="492.80" arrivalSpeed="9.70" duration="146.00" routeLength="994.90" waitingTime="32.00" waitingCount="1" stopTime="0.00" timeLoss="46.42" rerouteNo="0" devices="tripinfo_6.0" vType="paperVehicle" speedFactor="1.06" vaporized=""/>
    <tripinfo id="6.1" depart="8.00" departLane="nO_0" departPos="5.10" departSpeed="0.00" departDelay="0.00" arrival="152.00" arrivalLane="Os_0" arrivalPos="492.80" arrivalSpeed="9.61" duration="144.00" routeLength="994.90" waitingTime="29.00" waitingCount="1" stopTime="0.00" timeLoss="43.70" rerouteNo="0" devices="tripinfo_6.1" vType="paperVehicle" speedFactor="1.03" vaporized=""/>
    <tripinfo id="6.2" depart="32.00" departLane="nO_0" departPos="5.10" departSpeed="0.00" departDelay="0.00" arrival="154.00" arrivalLane="Os_0" arrivalPos="492.80" arrivalSpeed="8.75" duration="122.00" routeLength="994.90" waitingTime="8.00" waitingCount="1" stopTime="0.00" timeLoss="22.23" rerouteNo="0" devices="tripinfo_6.2" vType="paperVehicle" speedFactor="1.09" vaporized=""/>
    <tripinfo id="6.3" depart="43.00" departLane="nO_0" departPos="5.10" departSpeed="0.00" departDelay="0.00" arrival="156.00" arrivalLane="Os_0" arrivalPos="492.80" arrivalSpeed="9.02" duration="113.00" routeLength="994.90" waitingTime="0.00" waitingCount="0" stopTime="0.00" timeLoss="13.32" rerouteNo="0" devices="tripinfo_6.3" vType="paperVehicle" speedFactor="0.99" vaporized=""/>
    <tripinfo id="6.4" depart="65.00" departLane="nO_0" departPos="5.10" departSpeed="0.00" departDelay="0.00" arrival="174.00" arrivalLane="Os_0" arrivalPos="492.80" arrivalSpeed="9.15" duration="109.00" routeLength="994.90" waitingTime="0.00" waitingCount="0" stopTime="0.00" timeLoss="8.62" rerouteNo="0" devices="tripinfo_6.4" vType="paperVehicle" speedFactor="0.93" vaporized=""/>
    <tripinfo id="6.5" depart="76.00" departLane="nO_0" departPos="5.10" departSpeed="0.00" departDelay="0.00" arrival="185.00" arrivalLane="Os_0" arrivalPos="492.80" arrivalSpeed="9.16" duration="109.00" routeLength="994.90" waitingTime="0.00" waitingCount="0" stopTime="0.00" timeLoss="9.52" rerouteNo="0" devices="tripinfo_6.5" vType="paperVehicle" speedFactor="0.94" vaporized=""/>
    <tripinfo id="1.2" depart="79.00" departLane="nA_0" departPos="5.10" departSpeed="0.00" departDelay="0.00" arrival="199.00" arrivalLane="As_0" arrivalPos="492.80" arrivalSpeed="9.60" duration="120.00" routeLength="994.90" waitingTime="8.00" waitingCount="1" stopTime="0.00" timeLoss="20.14" rerouteNo="0" devices="tripinfo_1.2" vType="paperVehicle" speedFactor="0.94" vaporized=""/>
    <tripinfo id="3.1" depart="118.00" departLane="nC_0" departPos="5.10" departSpeed="0.00" departDelay="0.00" arrival="227.00" arrivalLane="Cs_0" arrivalPos="492.80" arrivalSpeed="9.87" duration="109.00" routeLength="994.90" waitingTime="0.00" waitingCount="0" stopTime="0.00" timeLoss="9.28" rerouteNo="0" devices="tripinfo_3.1" vType="paperVehicle" speedFactor="0.87" vaporized=""/>
    <tripinfo id="6.6" depart="121.00" departLane="nO_0" departPos="5.10" departSpeed="0.00" departDelay="0.00" arrival="238.00" arrivalLane="Os_0" arrivalPos="492.80" arrivalSpeed="9.45" duration="117.00" routeLength="994.90" waitingTime="5.00" waitingCount="1" stopTime="0.00" timeLoss="17.44" rerouteNo="0" devices="tripinfo_6.6" vType="paperVehicle" speedFactor="0.92" vaporized=""/>
    <tripinfo id="3.2" depart="132.00" departLane="nC_0" departPos="5.10" departSpeed="0.00" departDelay="0.00" arrival="241.00" arrivalLane="Cs_0" arrivalPos="492.80" arrivalSpeed="8.82" duration="109.00" routeLength="994.90" waitingTime="0.00" waitingCount="0" stopTime="0.00" timeLoss="8.66" rerouteNo="0" devices="tripinfo_3.2" vType="paperVehicle" speedFactor="1.18" vaporized=""/>
    <tripinfo id="1.3" depart="132.00" departLane="nA_0" departPos="5.10" departSpeed="0.00" departDelay="0.00" arrival="248.00" arrivalLane="As_0" arrivalPos="492.80" arrivalSpeed="9.60" duration="116.00" routeLength="994.90" waitingTime="5.00" waitingCount="1" stopTime="0.00" timeLoss="16.50" rerouteNo="0" devices="tripinfo_1.3" vType="paperVehicle" speedFactor="0.93" vaporized=""/>
    <tripinfo id="1.4" depart="141.00" departLane="nA_0" departPos="5.10" departSpeed="0.00" departDelay="0.00" arrival="250.00" arrivalLane="As_0" arrivalPos="492.80" arrivalSpeed="9.27" duration="109.00" routeLength="994.90" waitingTime="0.00" waitingCount="0" stopTime="0.00" timeLoss="9.50" rerouteNo="0" devices="tripinfo_1.4" vType="paperVehicle" speedFactor="1.17" vaporized=""/>
    <tripinfo id="2.0" depart="137.00" departLane="nB_0" departPos="5.10" departSpeed="0.00" departDelay="0.00" arrival="253.00" arrivalLane="Bs_0" arrivalPos="492.80" arrivalSpeed="9.96" duration="116.00" routeLength="994.90" waitingTime="3.00" waitingCount="1" stopTime="0.00" timeLoss="15.87" rerouteNo="0" devices="tripinfo_2.0" vType="paperVehicle" speedFactor="1.01" vaporized=""/>
    <tripinfo id="1.5" depart="147.00" departLane="nA_0" departPos="5.10" departSpeed="0.00" departDelay="0.00" arrival="256.00" arrivalLane="As_0" arrivalPos="492.80" arrivalSpeed="9.99" duration="109.00" routeLength="994.90" waitingTime="0.00" waitingCount="0" stopTime="0.00" timeLoss="9.00" rerouteNo="0" devices="tripinfo_1.5" vType="paperVehicle" speedFactor="0.97" vaporized=""/>
    <tripinfo id="6.7" depart="153.00" departLane="nO_0" departPos="5.10" departSpeed="0.00" departDelay="0.00" arrival="261.00" arrivalLane="Os_0" arrivalPos="492.80" arrivalSpeed="9.50" duration="108.00" routeLength="994.90" waitingTime="0.00" waitingCount="0" stopTime="0.00" timeLoss="8.27" rerouteNo="0" devices="tripinfo_6.7" vType="paperVehicle" speedFactor="1.18" vaporized=""/>
    <tripinfo id="6.8" depart="161.00" departLane="nO_0" departPos="5.10" departSpeed="0.00" departDelay="0.00" arrival="270.00" arrivalLane="Os_0" arrivalPos="492.80" arrivalSpeed="9.95" duration="109.00" routeLength="994.90" waitingTime="0.00" waitingCount="0" stopTime="0.00" timeLoss="9.07" rerouteNo="0" devices="tripinfo_6.8" vType="paperVehicle" speedFactor="0.90" vaporized=""/>
    <tripinfo id="6.9" depart="173.00" departLane="nO_0" departPos="5.10" departSpeed="0.00" departDelay="0.00" arrival="281.00" arrivalLane="Os_0" arrivalPos="492.80" arrivalSpeed="8.83" duration="108.00" routeLength="994.90" waitingTime="0.00" waitingCount="0" stopTime="0.00" timeLoss="8.21" rerouteNo="0" devices="tripinfo_6.9" vType="paperVehicle" speedFactor="1.09" vaporized=""/>
    <tripinfo id="1.6" depart="195.00" departLane="nA_0" departPos="5.10" departSpeed="0.00" departDelay="0.00" arrival="304.00" arrivalLane="As_0" arrivalPos="492.80" arrivalSpeed="9.48" duration="109.00" routeLength="994.90" waitingTime="0.00" waitingCount="0" stopTime="0.00" timeLoss="8.69" rerouteNo="0" devices="tripinfo_1.6" vType="paperVehicle" speedFactor="1.02" vaporized=""/>
    <tripinfo id="3.3" depart="164.00" departLane="nC_0" departPos="5.10" departSpeed="0.00" departDelay="0.00" arrival="305.00" arrivalLane="Cs_0" arrivalPos="492.80" arrivalSpeed="9.26" duration="141.00" routeLength="994.90" waitingTime="29.00" waitingCount="1" stopTime="0.00" timeLoss="40.88" rerouteNo="0" devices="tripinfo_3.3" vType="paperVehicle" speedFactor="1.03" vaporized=""/>
    <tripinfo id="3.4" depart="174.00" departLane="nC_0" departPos="5.10" departSpeed="0.00" departDelay="0.00" arrival="307.00" arrivalLane="Cs_0" arrivalPos="492.80" arrivalSpeed="9.57" duration="133.00" routeLength="994.90" waitingTime="21.00" waitingCount="1" stopTime="0.00" timeLoss="33.39" rerouteNo="0" devices="tripinfo_3.4" vType="paperVehicle" speedFactor="1.04" vaporized=""/>
    <tripinfo id="3.5" depart="182.00" departLane="nC_0" departPos="5.10" departSpeed="0.00" departDelay="0.00" arrival="310.00" arrivalLane="Cs_0" arrivalPos="492.80" arrivalSpeed="9.77" duration="128.00" routeLength="994.90" waitingTime="15.00" waitingCount="1" stopTime="0.00" timeLoss="27.81" rerouteNo="0" devices="tripinfo_3.5" vType="paperVehicle" speedFactor="0.90" vaporized=""/>
    <tripinfo id="6.10" depart="180.00" departLane="nO_0" departPos="5.10" departSpeed="0.00" departDelay="0.00" arrival="314.00" arrivalLane="Os_0" arrivalPos="492.80" arrivalSpeed="9.13" duration="134.00" routeLength="994.90" waitingTime="20.00" waitingCount="1" stopTime="0.00" timeLoss="33.71" rerouteNo="0" devices="tripinfo_6.10" vType="paperVehicle" speedFactor="1.09" vaporized=""/>
    <tripinfo id="6.11" depart="183.00" departLane="nO_0" departPos="5.10" departSpeed="0.00" departDelay="2.00" arrival="316.00" arrivalLane="Os_0" arrivalPos="492.80" arrivalSpeed="9.03" duration="133.00" routeLength="994.90" waitingTime="19.00" waitingCount="1" stopTime="0.00" timeLoss="32.68" rerouteNo="0" devices="tripinfo_6.11" vType="paperVehicle" speedFactor="1.00" vaporized=""/>
    <tripinfo id="6.12" depart="186.00" departLane="nO_0" departPos="5.10" departSpeed="0.00" departDelay="1.00" arrival="318.00" arrivalLane="Os_0" arrivalPos="492.80" arrivalSpeed="9.35" duration="132.00" routeLength="994.90" waitingTime="18.00" waitingCount="1" stopTime="0.00" timeLoss="31.92" rerouteNo="0" devices="tripinfo_6.12" vType="paperVehicle" speedFactor="0.85" vaporized=""/>
    <tripinfo id="6.13" depart="195.00" departLane="nO_0" departPos="5.10" departSpeed="0.00" departDelay="0.00" arrival="320.00" arrivalLane="Os_0" arrivalPos="492.80" arrivalSpeed="9.22" duration="125.00" routeLength="994.90" waitingTime="10.00" waitingCount="1" stopTime="0.00" timeLoss="24.99" rerouteNo="0" devices="tripinfo_6.13" vType="paperVehicle" speedFactor="1.10" vaporized=""/>
    <tripinfo id="6.14" depart="198.00" departLane="nO_0" departPos="5.10" departSpeed="0.00" departDelay="1.00" arrival="322.00" arrivalLane="Os_0" arrivalPos="492.80" arrivalSpeed="9.76" duration="124.00" routeLength="994.90" waitingTime="8.00" waitingCount="1" stopTime="0.00" timeLoss="24.14" rerouteNo="0" devices="tripinfo_6.14" vType="paperVehicle" speedFactor="1.00" vaporized=""/>
    <tripinfo id="6.15" depart="201.00" departLane="nO_0" departPos="5.10" departSpeed="0.00" departDelay="3.00" arrival="324.00" arrivalLane="Os_0" arrivalPos="492.80" arrivalSpeed="9.05" duration="123.00" routeLength="994.90" waitingTime="7.00" waitingCount="1" stopTime="0.00" timeLoss="23.42" rerouteNo="0" devices="tripinfo_6.15" vType="paperVehicle" speedFactor="0.90" vaporized=""/>
    <tripinfo id="5.0" depart="4.00" departLane="wO_0" departPos="5.10" departSpeed="0.00" departDelay="0.00" arrival="325.00" arrivalLane="De_0" arrivalPos="496.00" arrivalSpeed="9.97" duration="321.00" routeLength="2994.90" waitingTime="0.00" waitingCount="0" stopTime="0.00" timeLoss="21.26" rerouteNo="0" devices="tripinfo_5.0" vType="paperVehicle" speedFactor="0.94" vaporized=""/>
    <tripinfo id="6.16" depart="204.00" departLane="nO_0" departPos="5.10" departSpeed="0.00" departDelay="1.00" arrival="327.00" arrivalLane="Os_0" arrivalPos="492.80" arrivalSpeed="9.83" duration="123.00" routeLength="994.90" waitingTime="7.00" waitingCount="1" stopTime="0.00" timeLoss="22.69" rerouteNo="0" devices="tripinfo_6.16" vType="paperVehicle" speedFactor="1.14" vaporized=""/>
    <tripinfo id="6.17" depart="212.00" departLane="nO_0" departPos="5.10" departSpeed="0.00" departDelay="0.00" arrival="329.00" arrivalLane="Os_0" arrivalPos="492.80" arrivalSpeed="9.21" duration="117.00" routeLength="994.90" waitingTime="2.00" waitingCount="1" stopTime="0.00" timeLoss="17.03" rerouteNo="0" devices="tripinfo_6.17" vType="paperVehicle" speedFactor="0.97" vaporized=""/>
    <tripinfo id="5.1" depart="8.00" departLane="wO_0" departPos="5.10" departSpeed="0.00" departDelay="0.00" arrival="330.00" arrivalLane="De_0" arrivalPos="496.00" arrivalSpeed="8.90" duration="322.00" routeLength="2994.90" waitingTime="0.00" waitingCount="0" stopTime="0.00" timeLoss="22.35" rerouteNo="0" devices="tripinfo_5.1" vType="paperVehicle" speedFactor="1.08" vaporized=""/>
    <tripinfo id="6.18" depart="226.00" departLane="nO_0" departPos="5.10" departSpeed="0.00" departDelay="0.00" arrival="336.00" arrivalLane="Os_0" arrivalPos="492.80" arrivalSpeed="9.01" duration="110.00" routeLength="994.90" waitingTime="0.00" waitingCount="0" stopTime="0.00" timeLoss="9.93" rerouteNo="0" devices="tripinfo_6.18" vType="paperVehicle" speedFactor="1.12" vaporized=""/>
    <tripinfo id="5.2" depart="17.00" departLane="wO_0" departPos="5.10" departSpeed="0.00" departDelay="0.00" arrival="340.00" arrivalLane="De_0" arrivalPos="496.00" arrivalSpeed="9.54" duration="323.00" routeLength="2994.90" waitingTime="0.00" waitingCount="0" stopTime="0.00" timeLoss="22.64" rerouteNo="0" devices="tripinfo_5.2" vType="paperVehicle" speedFactor="0.89" vaporized=""/>
    <tripinfo id="5.3" depart="20.00" departLane="wO_0" departPos="5.10" departSpeed="0.00" departDelay="0.00" arrival="343.00" arrivalLane="De_0" arrivalPos="496.00" arrivalSpeed="9.43" duration="323.00" routeLength="2994.90" waitingTime="0.00" waitingCount="0" stopTime="0.00" timeLoss="22.76" rerouteNo="0" devices="tripinfo_5.3" vType="paperVehicle" speedFactor="0.94" vaporized=""/>
    <tripinfo id="5.4" depart="29.00" departLane="wO_0" departPos="5.10" departSpeed="0.00" departDelay="0.00" arrival="352.00" arrivalLane="De_0" arrivalPos="496.00" arrivalSpeed="9.57" duration="323.00" routeLength="2994.90" waitingTime="0.00" waitingCount="0" stopTime="0.00" timeLoss="22.65" rerouteNo="0" devices="tripinfo_5.4" vType="paperVehicle" speedFactor="0.86" vaporized=""/>
    <tripinfo id="6.19" depart="245.00" departLane="nO_0" departPos="5.10" departSpeed="0.00" departDelay="0.00" arrival="368.00" arrivalLane="Os_0" arrivalPos="492.80" arrivalSpeed="9.94" duration="123.00" routeLength="994.90" waitingTime="10.00" waitingCount="1" stopTime="0.00" timeLoss="23.42" rerouteNo="0" devices="tripinfo_6.19" vType="paperVehicle" speedFactor="0.94" vaporized=""/>
    <tripinfo id="6.20" depart="258.00" departLane="nO_0" departPos="5.10" departSpeed="0.00" departDelay="0.00" arrival="371.00" arrivalLane="Os_0" arrivalPos="492.80" arrivalSpeed="8.86" duration="113.00" routeLength="994.90" waitingTime="0.00" waitingCount="0" stopTime="0.00" timeLoss="13.06" rerouteNo="0" devices="tripinfo_6.20" vType="paperVehicle" speedFactor="0.91" vaporized=""/>
    <tripinfo id="2.1" depart="265.00" departLane="nB_0" departPos="5.10" departSpeed="0.00" departDelay="0.00" arrival="374.00" arrivalLane="Bs_0" arrivalPos="492.80" arrivalSpeed="9.51" duration="109.00" routeLength="994.90" waitingTime="0.00" waitingCount="0" stopTime="0.00" timeLoss="9.02" rerouteNo="0" devices="tripinfo_2.1" vType="paperVehicle" speedFactor="0.91" vaporized=""/>
    <tripinfo id="6.21" depart="267.00" departLane="nO_0" departPos="5.10" departSpeed="0.00" departDelay="0.00" arrival="376.00" arrivalLane="Os_0" arrivalPos="492.80" arrivalSpeed="9.49" duration="109.00" routeLength="994.90" waitingTime="0.00" waitingCount="0" stopTime="0.00" timeLoss="8.86" rerouteNo="0" devices="tripinfo_6.21" vType="paperVehicle" speedFactor="1.04" vaporized=""/>
    <tripinfo id="6.22" depart="274.00" departLane="nO_0" departPos="5.10" departSpeed="0.00" departDelay="0.00" arrival="383.00" arrivalLane="Os_0" arrivalPos="492.80" arrivalSpeed="9.86" duration="109.00" routeLength="994.90" waitingTime="0.00" waitingCount="0" stopTime="0.00" timeLoss="8.79" rerouteNo="0" devices="tripinfo_6.22" vType="paperVehicle" speedFactor="1.02" vaporized=""/>
    <tripinfo id="6.23" depart="284.00" departLane="nO_0" departPos="5.10" departSpeed="0.00" departDelay="0.00" arrival="393.00" arrivalLane="Os_0" arrivalPos="492.80" arrivalSpeed="9.22" duration="109.00" routeLength="994.90" waitingTime="0.00" waitingCount="0" stopTime="0.00" timeLoss="8.92" rerouteNo="0" devices="tripinfo_6.23" vType="paperVehicle" speedFactor="0.94" vaporized=""/>
    <tripinfo id="6.24" depart="288.00" departLane="nO_0" departPos="5.10" departSpeed="0.00" departDelay="0.00" arrival="397.00" arrivalLane="Os_0" arrivalPos="492.80" arrivalSpeed="9.54" duration="109.00" routeLength="994.90" waitingTime="0.00" waitingCount="0" stopTime="0.00" timeLoss="8.80" rerouteNo="0" devices="tripinfo_6.24" vType="paperVehicle" speedFactor="0.96" vaporized=""/>
    <tripinfo id="6.25" depart="298.00" departLane="nO_0" departPos="5.10" departSpeed="0.00" departDelay="0.00" arrival="407.00" arrivalLane="Os_0" arrivalPos="492.80" arrivalSpeed="9.79" duration="109.00" routeLength="994.90" waitingTime="0.00" waitingCount="0" stopTime="0.00" timeLoss="8.71" rerouteNo="0" devices="tripinfo_6.25" vType="paperVehicle" speedFactor="0.98" vaporized=""/>
    <tripinfo id="4.0" depart="284.00" departLane="nD_0" departPos="5.10" departSpeed="0.00" departDelay="0.00" arrival="410.00" arrivalLane="Ds_0" arrivalPos="492.80" arrivalSpeed="8.79" duration="126.00" routeLength="994.90" waitingTime="11.00" waitingCount="1" stopTime="0.00" timeLoss="26.18" rerouteNo="0" devices="tripinfo_4.0" vType="paperVehicle" speedFactor="1.02" vaporized=""/>
    <tripinfo id="6.26" depart="301.00" departLane="nO_0" departPos="5.10" departSpeed="0.00" departDelay="0.00" arrival="410.00" arrivalLane="Os_0" arrivalPos="492.80" arrivalSpeed="9.80" duration="109.00" routeLength="994.90" waitingTime="0.00" waitingCount="0" stopTime="0.00" timeLoss="9.06" rerouteNo="0" devices="tripinfo_6.26" vType="paperVehicle" speedFactor="1.03" vaporized=""/>
    <tripinfo id="5.5" depart="38.00" departLane="wO_0" departPos="5.10" departSpeed="0.00" departDelay="0.00" arrival="435.00" arrivalLane="De_0" arrivalPos="496.00" arrivalSpeed="9.61" duration="397.00" routeLength="2994.90" waitingTime="68.00" waitingCount="2" stopTime="0.00" timeLoss="97.19" rerouteNo="0" devices="tripinfo_5.5" vType="paperVehicle" speedFactor="1.03" vaporized=""/>
    <tripinfo id="2.2" depart="327.00" departLane="nB_0" departPos="5.10" departSpeed="0.00" departDelay="0.00" arrival="436.00" arrivalLane="Bs_0" arrivalPos="492.80" arrivalSpeed="9.08" duration="109.00" routeLength="994.90" waitingTime="0.00" waitingCount="0" stopTime="0.00" timeLoss="9.10" rerouteNo="0" devices="tripinfo_2.2" vType="paperVehicle" speedFactor="0.97" vaporized=""/>
    <tripinfo id="5.6" depart="41.00" departLane="wO_0" departPos="5.10" departSpeed="0.00" departDelay="1.00" arrival="438.00" arrivalLane="De_0" arrivalPos="496.00" arrivalSpeed="9.82" duration="397.00" routeLength="2994.90" waitingTime="66.00" waitingCount="2" stopTime="0.00" timeLoss="97.27" rerouteNo="0" devices="tripinfo_5.6" vType="paperVehicle" speedFactor="1.05" vaporized=""/>
    <tripinfo id="5.7" depart="44.00" departLane="wO_0" departPos="5.10" departSpeed="0.00" departDelay="2.00" arrival="441.00" arrivalLane="De_0" arrivalPos="496.00" arrivalSpeed="9.95" duration="397.00" routeLength="2994.90" waitingTime="61.00" waitingCount="2" stopTime="0.00" timeLoss="96.55" rerouteNo="0" devices="tripinfo_5.7" vType="paperVehicle" speedFactor="1.12" vaporized=""/>
    <tripinfo id="5.8" depart="71.00" departLane="wO_0" departPos="5.10" departSpeed="0.00" departDelay="0.00" arrival="443.00" arrivalLane="De_0" arrivalPos="496.00" arrivalSpeed="9.72" duration="372.00" routeLength="2994.90" waitingTime="34.00" waitingCount="2" stopTime="0.00" timeLoss="71.91" rerouteNo="0" devices="tripinfo_5.8" vType="paperVehicle" speedFactor="0.88" vaporized=""/>
    <tripinfo id="6.27" depart="315.00" departLane="nO_0" departPos="5.10" departSpeed="0.00" departDelay="0.00" arrival="443.00" arrivalLane="Os_0" arrivalPos="492.80" arrivalSpeed="9.36" duration="128.00" routeLength="994.90" waitingTime="16.00" waitingCount="1" stopTime="0.00" timeLoss="27.89" rerouteNo="0" devices="tripinfo_6.27" vType="paperVehicle" speedFactor="1.02" vaporized=""/>
    <tripinfo id="2.3" depart="336.00" departLane="nB_0" departPos="5.10" departSpeed="0.00" departDelay="0.00" arrival="444.00" arrivalLane="Bs_0" arrivalPos="492.80" arrivalSpeed="9.26" duration="108.00" routeLength="994.90" waitingTime="0.00" waitingCount="0" stopTime="0.00" timeLoss="8.36" rerouteNo="0" devices="tripinfo_2.3" vType="paperVehicle" speedFactor="0.98" vaporized=""/>
    <tripinfo id="5.9" depart="83.00" departLane="wO_0" departPos="5.10" departSpeed="0.00" departDelay="0.00" arrival="445.00" arrivalLane="De_0" arrivalPos="496.00" arrivalSpeed="9.48" duration="362.00" routeLength="2994.90" waitingTime="26.00" waitingCount="2" stopTime="0.00" timeLoss="62.17" rerouteNo="0" devices="tripinfo_5.9" vType="paperVehicle" speedFactor="1.16" vaporized=""/>
    <tripinfo id="6.28" depart="327.00" departLane="nO_0" departPos="5.10" departSpeed="0.00" departDelay="0.00" arrival="445.00" arrivalLane="Os_0" arrivalPos="492.80" arrivalSpeed="9.40" duration="118.00" routeLength="994.90" waitingTime="6.00" waitingCount="1" stopTime="0.00" timeLoss="17.81" rerouteNo="0" devices="tripinfo_6.28" vType="paperVehicle" speedFactor="1.15" vaporized=""/>
    <tripinfo id="5.10" depart="87.00" departLane="wO_0" departPos="5.10" departSpeed="0.00" departDelay="0.00" arrival="448.00" arrivalLane="De_0" arrivalPos="496.00" arrivalSpeed="9.15" duration="361.00" routeLength="2994.90" waitingTime="21.00" waitingCount="2" stopTime="0.00" timeLoss="60.79" rerouteNo="0" devices="tripinfo_5.10" vType="paperVehicle" speedFactor="1.02" vaporized=""/>
    <tripinfo id="2.4" depart="339.00" departLane="nB_0" departPos="5.10" departSpeed="0.00" departDelay="2.00" arrival="448.00" arrivalLane="Bs_0" arrivalPos="492.80" arrivalSpeed="9.51" duration="109.00" routeLength="994.90" waitingTime="0.00" waitingCount="0" stopTime="0.00" timeLoss="9.12" rerouteNo="0" devices="tripinfo_2.4" vType="paperVehicle" speedFactor="1.00" vaporized=""/>
    <tripinfo id="5.11" depart="94.00" departLane="wO_0" departPos="5.10" departSpeed="0.00" departDelay="0.00" arrival="450.00" arrivalLane="De_0" arrivalPos="496.00" arrivalSpeed="9.57" duration="356.00" routeLength="2994.90" waitingTime="18.00" waitingCount="1" stopTime="0.00" timeLoss="55.82" rerouteNo="0" devices="tripinfo_5.11" vType="paperVehicle" speedFactor="1.01" vaporized=""/>
    <tripinfo id="5.12" depart="98.00" departLane="wO_0" departPos="5.10" departSpeed="0.00" departDelay="0.00" arrival="452.00" arrivalLane="De_0" arrivalPos="496.00" arrivalSpeed="9.01" duration="354.00" routeLength="2994.90" waitingTime="17.00" waitingCount="1" stopTime="0.00" timeLoss="54.07" rerouteNo="0" devices="tripinfo_5.12" vType="paperVehicle" speedFactor="0.98" vaporized=""/>
    <tripinfo id="1.7" depart="343.00" departLane="nA_0" departPos="5.10" departSpeed="0.00" departDelay="0.00" arrival="452.00" arrivalLane="As_0" arrivalPos="492.80" arrivalSpeed="9.46" duration="109.00" routeLength="994.90" waitingTime="0.00" waitingCount="0" stopTime="0.00" timeLoss="8.86" rerouteNo="0" devices="tripinfo_1.7" vType="paperVehicle" speedFactor="1.04" vaporized=""/>
    <tripinfo id="5.13" depart="111.00" departLane="wO_0" departPos="5.10" departSpeed="0.00" departDelay="0.00" arrival="454.00" arrivalLane="De_0" arrivalPos="496.00" arrivalSpeed="9.38" duration="343.00" routeLength="2994.90" waitingTime="11.00" waitingCount="1" stopTime="0.00" timeLoss="43.15" rerouteNo="0" devices="tripinfo_5.13" vType="paperVehicle" speedFactor="0.89" vaporized=""/>
    <tripinfo id="5.14" depart="114.00" departLane="wO_0" departPos="5.10" departSpeed="0.00" departDelay="1.00" arrival="456.00" arrivalLane="De_0" arrivalPos="496.00" arrivalSpeed="9.63" duration="342.00" routeLength="2994.90" waitingTime="10.00" waitingCount="1" stopTime="0.00" timeLoss="42.15" rerouteNo="0" devices="tripinfo_5.14" vType="paperVehicle" speedFactor="0.83" vaporized=""/>
    <tripinfo id="6.29" depart="347.00" departLane="nO_0" departPos="5.10" departSpeed="0.00" departDelay="0.00" arrival="456.00" arrivalLane="Os_0" arrivalPos="492.80" arrivalSpeed="9.45" duration="109.00" routeLength="994.90" waitingTime="0.00" waitingCount="0" stopTime="0.00" timeLoss="8.86" rerouteNo="0" devices="tripinfo_6.29" vType="paperVehicle" speedFactor="1.01" vaporized=""/>
    <tripinfo id="1.8" depart="351.00" departLane="nA_0" departPos="5.10" departSpeed="0.00" departDelay="0.00" arrival="460.00" arrivalLane="As_0" arrivalPos="492.80" arrivalSpeed="9.58" duration="109.00" routeLength="994.90" waitingTime="0.00" waitingCount="0" stopTime="0.00" timeLoss="9.01" rerouteNo="0" devices="tripinfo_1.8" vType="paperVehicle" speedFactor="1.02" vaporized=""/>
    <tripinfo id="1.9" depart="354.00" departLane="nA_0" departPos="5.10" departSpeed="0.00" departDelay="2.00" arrival="463.00" arrivalLane="As_0" arrivalPos="492.80" arrivalSpeed="8.95" duration="109.00" routeLength="994.90" waitingTime="0.00" waitingCount="0" stopTime="0.00" timeLoss="9.01" rerouteNo="0" devices="tripinfo_1.9" vType="paperVehicle" speedFactor="1.02" vaporized=""/>
    <tripinfo id="4.1" depart="368.00" departLane="nD_0" departPos="5.10" departSpeed="0.00" departDelay="0.00" arrival="477.00" arrivalLane="Ds_0" arrivalPos="492.80" arrivalSpeed="9.54" duration="109.00" routeLength="994.90" waitingTime="0.00" waitingCount="0" stopTime="0.00" timeLoss="8.83" rerouteNo="0" devices="tripinfo_4.1" vType="paperVehicle" speedFactor="0.92" vaporized=""/>
    <tripinfo id="2.5" depart="368.00" departLane="nB_0" departPos="5.10" departSpeed="0.00" departDelay="0.00" arrival="482.00" arrivalLane="Bs_0" arrivalPos="492.80" arrivalSpeed="8.80" duration="114.00" routeLength="994.90" waitingTime="1.00" waitingCount="1" stopTime="0.00" timeLoss="13.78" rerouteNo="0" devices="tripinfo_2.5" vType="paperVehicle" speedFactor="0.83" vaporized=""/>
    <tripinfo id="1.10" depart="374.00" departLane="nA_0" departPos="5.10" departSpeed="0.00" departDelay="0.00" arrival="502.00" arrivalLane="As_0" arrivalPos="492.80" arrivalSpeed="10.00" duration="128.00" routeLength="994.90" waitingTime="15.00" waitingCount="1" stopTime="0.00" timeLoss="27.63" rerouteNo="0" devices="tripinfo_1.10" vType="paperVehicle" speedFactor="1.09" vaporized=""/>
    <tripinfo id="5.15" depart="125.00" departLane="wO_0" departPos="5.10" departSpeed="0.00" departDelay="0.00" arrival="503.00" arrivalLane="De_0" arrivalPos="496.00" arrivalSpeed="9.15" duration="378.00" routeLength="2994.90" waitingTime="50.00" waitingCount="1" stopTime="0.00" timeLoss="77.83" rerouteNo="0" devices="tripinfo_5.15" vType="paperVehicle" speedFactor="0.95" vaporized=""/>
    <tripinfo id="5.16" depart="128.00" departLane="wO_0" departPos="5.10" departSpeed="0.00" departDelay="0.00" arrival="505.00" arrivalLane="De_0" arrivalPos="496.00" arrivalSpeed="9.78" duration="377.00" routeLength="2994.90" waitingTime="48.00" waitingCount="1" stopTime="0.00" timeLoss="76.88" rerouteNo="0" devices="tripinfo_5.16" vType="paperVehicle" speedFactor="1.13" vaporized=""/>
    <tripinfo id="6.30" depart="374.00" departLane="nO_0" departPos="5.10" departSpeed="0.00" departDelay="0.00" arrival="505.00" arrivalLane="Os_0" arrivalPos="492.80" arrivalSpeed="9.29" duration="131.00" routeLength="994.90" waitingTime="18.00" waitingCount="1" stopTime="0.00" timeLoss="31.11" rerouteNo="0" devices="tripinfo_6.30" vType="paperVehicle" speedFactor="1.06" vaporized=""/>
    <tripinfo id="6.31" depart="378.00" departLane="nO_0" departPos="5.10" departSpeed="0.00" departDelay="0.00" arrival="507.00" arrivalLane="Os_0" arrivalPos="492.80" arrivalSpeed="8.84" duration="129.00" routeLength="994.90" waitingTime="15.00" waitingCount="1" stopTime="0.00" timeLoss="29.29" rerouteNo="0" devices="tripinfo_6.31" vType="paperVehicle" speedFactor="0.91" vaporized=""/>