<?xml version="1.0" encoding="UTF-8"?>

<!-- generated on 2022-01-25 10:03:41 by Eclipse SUMO sumo Version 1.10.0
<configuration xmlns:xsi="http://www.w3.org/2001/XMLSchema-instance" xsi:noNamespaceSchemaLocation="http://sumo.dlr.de/xsd/sumoConfiguration.xsd">

    <input>
        <net-file value="C:\Users\Marcus\Desktop\Hauptordner\Studium\Masterstudium\3.%20Semester\Projekt_Sim-Opt\Traffic_Simulation\arterial\arterialnet.net.xml"/>
        <route-files value="C:\Users\Marcus\Desktop\Hauptordner\Studium\Masterstudium\3.%20Semester\Projekt_Sim-Opt\Traffic_Simulation\arterial\arterialRoutes.xml"/>
        <additional-files value="C:\Users\Marcus\Desktop\Hauptordner\Studium\Masterstudium\3.%20Semester\Projekt_Sim-Opt\Traffic_Simulation\arterial\additionals.xml"/>
    </input>

    <output>
        <tripinfo-output value="../tripinfo.xml"/>
        <statistic-output value="../statistics.xml"/>
    </output>

    <report>
        <no-step-log value="true"/>
    </report>

    <traci_server>
        <remote-port value="65034"/>
    </traci_server>

</configuration>
-->

<tripinfos xmlns:xsi="http://www.w3.org/2001/XMLSchema-instance" xsi:noNamespaceSchemaLocation="http://sumo.dlr.de/xsd/tripinfo_file.xsd">
    <tripinfo id="3.0" depart="5.00" departLane="nC_0" departPos="5.10" departSpeed="0.00" departDelay="0.00" arrival="114.00" arrivalLane="Cs_0" arrivalPos="492.80" arrivalSpeed="9.54" duration="109.00" routeLength="994.90" waitingTime="0.00" waitingCount="0" stopTime="0.00" timeLoss="8.66" rerouteNo="0" devices="tripinfo_3.0" vType="paperVehicle" speedFactor="1.06" vaporized=""/>
    <tripinfo id="6.0" depart="8.00" departLane="nO_0" departPos="5.10" departSpeed="0.00" departDelay="0.00" arrival="145.00" arrivalLane="Os_0" arrivalPos="492.80" arrivalSpeed="9.72" duration="137.00" routeLength="994.90" waitingTime="24.00" waitingCount="1" stopTime="0.00" timeLoss="37.37" rerouteNo="0" devices="tripinfo_6.0" vType="paperVehicle" speedFactor="0.94" vaporized=""/>
    <tripinfo id="6.1" depart="13.00" departLane="nO_0" departPos="5.10" departSpeed="0.00" departDelay="0.00" arrival="148.00" arrivalLane="Os_0" arrivalPos="492.80" arrivalSpeed="9.65" duration="135.00" routeLength="994.90" waitingTime="22.00" waitingCount="1" stopTime="0.00" timeLoss="34.81" rerouteNo="0" devices="tripinfo_6.1" vType="paperVehicle" speedFactor="1.05" vaporized=""/>
    <tripinfo id="6.2" depart="34.00" departLane="nO_0" departPos="5.10" departSpeed="0.00" departDelay="0.00" arrival="150.00" arrivalLane="Os_0" arrivalPos="492.80" arrivalSpeed="9.84" duration="116.00" routeLength="994.90" waitingTime="2.00" waitingCount="1" stopTime="0.00" timeLoss="15.89" rerouteNo="0" devices="tripinfo_6.2" vType="paperVehicle" speedFactor="1.12" vaporized=""/>
    <tripinfo id="6.3" depart="38.00" departLane="nO_0" departPos="5.10" departSpeed="0.00" departDelay="0.00" arrival="152.00" arrivalLane="Os_0" arrivalPos="492.80" arrivalSpeed="9.22" duration="114.00" routeLength="994.90" waitingTime="0.00" waitingCount="0" stopTime="0.00" timeLoss="14.42" rerouteNo="0" devices="tripinfo_6.3" vType="paperVehicle" speedFactor="0.99" vaporized=""/>
    <tripinfo id="6.4" depart="41.00" departLane="nO_0" departPos="5.10" departSpeed="0.00" departDelay="1.00" arrival="155.00" arrivalLane="Os_0" arrivalPos="492.80" arrivalSpeed="9.22" duration="114.00" routeLength="994.90" waitingTime="0.00" waitingCount="0" stopTime="0.00" timeLoss="13.74" rerouteNo="0" devices="tripinfo_6.4" vType="paperVehicle" speedFactor="0.88" vaporized=""/>
    <tripinfo id="4.0" depart="9.00" departLane="nD_0" departPos="5.10" departSpeed="0.00" departDelay="0.00" arrival="156.00" arrivalLane="Ds_0" arrivalPos="492.80" arrivalSpeed="9.15" duration="147.00" routeLength="994.90" waitingTime="32.00" waitingCount="1" stopTime="0.00" timeLoss="46.92" rerouteNo="0" devices="tripinfo_4.0" vType="paperVehicle" speedFactor="1.01" vaporized=""/>
    <tripinfo id="6.5" depart="44.00" departLane="nO_0" departPos="5.10" departSpeed="0.00" departDelay="3.00" arrival="157.00" arrivalLane="Os_0" arrivalPos="492.80" arrivalSpeed="9.53" duration="113.00" routeLength="994.90" waitingTime="0.00" waitingCount="0" stopTime="0.00" timeLoss="12.97" rerouteNo="0" devices="tripinfo_6.5" vType="paperVehicle" speedFactor="0.94" vaporized=""/>
    <tripinfo id="6.6" depart="54.00" departLane="nO_0" departPos="5.10" departSpeed="0.00" departDelay="0.00" arrival="163.00" arrivalLane="Os_0" arrivalPos="492.80" arrivalSpeed="9.24" duration="109.00" routeLength="994.90" waitingTime="0.00" waitingCount="0" stopTime="0.00" timeLoss="8.70" rerouteNo="0" devices="tripinfo_6.6" vType="paperVehicle" speedFactor="1.16" vaporized=""/>
    <tripinfo id="3.1" depart="24.00" departLane="nC_0" departPos="5.10" departSpeed="0.00" departDelay="0.00" arrival="195.00" arrivalLane="Cs_0" arrivalPos="492.80" arrivalSpeed="9.28" duration="171.00" routeLength="994.90" waitingTime="57.00" waitingCount="1" stopTime="0.00" timeLoss="71.35" rerouteNo="0" devices="tripinfo_3.1" vType="paperVehicle" speedFactor="0.86" vaporized=""/>
    <tripinfo id="1.0" depart="13.00" departLane="nA_0" departPos="5.10" departSpeed="0.00" departDelay="0.00" arrival="196.00" arrivalLane="As_0" arrivalPos="492.80" arrivalSpeed="9.02" duration="183.00" routeLength="994.90" waitingTime="70.00" waitingCount="1" stopTime="0.00" timeLoss="82.97" rerouteNo="0" devices="tripinfo_1.0" vType="paperVehicle" speedFactor="0.83" vaporized=""/>
    <tripinfo id="3.2" depart="31.00" departLane="nC_0" departPos="5.10" departSpeed="0.00" departDelay="0.00" arrival="197.00" arrivalLane="Cs_0" arrivalPos="492.80" arrivalSpeed="8.84" duration="166.00" routeLength="994.90" waitingTime="54.00" waitingCount="1" stopTime="0.00" timeLoss="66.48" rerouteNo="0" devices="tripinfo_3.2" vType="paperVehicle" speedFactor="1.05" vaporized=""/>
    <tripinfo id="1.1" depart="16.00" departLane="nA_0" departPos="5.10" departSpeed="0.00" departDelay="1.00" arrival="198.00" arrivalLane="As_0" arrivalPos="492.80" arrivalSpeed="9.53" duration="182.00" routeLength="994.90" waitingTime="67.00" waitingCount="1" stopTime="0.00" timeLoss="82.03" rerouteNo="0" devices="tripinfo_1.1" vType="paperVehicle" speedFactor="0.89" vaporized=""/>
    <tripinfo id="3.3" depart="47.00" departLane="nC_0" departPos="5.10" departSpeed="0.00" departDelay="0.00" arrival="199.00" arrivalLane="Cs_0" arrivalPos="492.80" arrivalSpeed="9.70" duration="152.00" routeLength="994.90" waitingTime="40.00" waitingCount="1" stopTime="0.00" timeLoss="52.38" rerouteNo="0" devices="tripinfo_3.3" vType="paperVehicle" speedFactor="0.94" vaporized=""/>
    <tripinfo id="1.2" depart="64.00" departLane="nA_0" departPos="5.10" departSpeed="0.00" departDelay="0.00" arrival="201.00" arrivalLane="As_0" arrivalPos="492.80" arrivalSpeed="8.76" duration="137.00" routeLength="994.90" waitingTime="23.00" waitingCount="1" stopTime="0.00" timeLoss="36.97" rerouteNo="0" devices="tripinfo_1.2" vType="paperVehicle" speedFactor="1.01" vaporized=""/>
    <tripinfo id="1.3" depart="80.00" departLane="nA_0" departPos="5.10" departSpeed="0.00" departDelay="0.00" arrival="203.00" arrivalLane="As_0" arrivalPos="492.80" arrivalSpeed="9.35" duration="123.00" routeLength="994.90" waitingTime="7.00" waitingCount="1" stopTime="0.00" timeLoss="22.96" rerouteNo="0" devices="tripinfo_1.3" vType="paperVehicle" speedFactor="0.92" vaporized=""/>
    <tripinfo id="6.7" depart="68.00" departLane="nO_0" departPos="5.10" departSpeed="0.00" departDelay="0.00" arrival="235.00" arrivalLane="Os_0" arrivalPos="492.80" arrivalSpeed="9.76" duration="167.00" routeLength="994.90" waitingTime="54.00" waitingCount="1" stopTime="0.00" timeLoss="67.48" rerouteNo="0" devices="tripinfo_6.7" vType="paperVehicle" speedFactor="0.89" vaporized=""/>
    <tripinfo id="6.8" depart="71.00" departLane="nO_0" departPos="5.10" departSpeed="0.00" departDelay="1.00" arrival="238.00" arrivalLane="Os_0" arrivalPos="492.80" arrivalSpeed="9.48" duration="167.00" routeLength="994.90" waitingTime="52.00" waitingCount="1" stopTime="0.00" timeLoss="67.22" rerouteNo="0" devices="tripinfo_6.8" vType="paperVehicle" speedFactor="0.83" vaporized=""/>
    <tripinfo id="6.9" depart="84.00" departLane="nO_0" departPos="5.10" departSpeed="0.00" departDelay="0.00" arrival="240.00" arrivalLane="Os_0" arrivalPos="492.80" arrivalSpeed="9.23" duration="156.00" routeLength="994.90" waitingTime="42.00" waitingCount="1" stopTime="0.00" timeLoss="56.34" rerouteNo="0" devices="tripinfo_6.9" vType="paperVehicle" speedFactor="0.93" vaporized=""/>
    <tripinfo id="6.10" depart="87.00" departLane="nO_0" departPos="5.10" departSpeed="0.00" departDelay="1.00" arrival="242.00" arrivalLane="Os_0" arrivalPos="492.80" arrivalSpeed="9.94" duration="155.00" routeLength="994.90" waitingTime="40.00" waitingCount="1" stopTime="0.00" timeLoss="55.41" rerouteNo="0" devices="tripinfo_6.10" vType="paperVehicle" speedFactor="1.18" vaporized=""/>
    <tripinfo id="2.0" depart="63.00" departLane="nB_0" departPos="5.10" departSpeed="0.00" departDelay="0.00" arrival="245.00" arrivalLane="Bs_0" arrivalPos="492.80" arrivalSpeed="9.72" duration="182.00" routeLength="994.90" waitingTime="69.00" waitingCount="1" stopTime="0.00" timeLoss="82.24" rerouteNo="0" devices="tripinfo_2.0" vType="paperVehicle" speedFactor="1.02" vaporized=""/>
    <tripinfo id="6.11" depart="90.00" departLane="nO_0" departPos="5.10" departSpeed="0.00" departDelay="2.00" arrival="245.00" arrivalLane="Os_0" arrivalPos="492.80" arrivalSpeed="9.87" duration="155.00" routeLength="994.90" waitingTime="39.00" waitingCount="1" stopTime="0.00" timeLoss="54.57" rerouteNo="0" devices="tripinfo_6.11" vType="paperVehicle" speedFactor="1.01" vaporized=""/>
    <tripinfo id="4.1" depart="84.00" departLane="nD_0" departPos="5.10" departSpeed="0.00" departDelay="0.00" arrival="246.00" arrivalLane="Ds_0" arrivalPos="492.80" arrivalSpeed="8.72" duration="162.00" routeLength="994.90" waitingTime="48.00" waitingCount="1" stopTime="0.00" timeLoss="61.88" rerouteNo="0" devices="tripinfo_4.1" vType="paperVehicle" speedFactor="1.13" vaporized=""/>
    <tripinfo id="2.1" depart="75.00" departLane="nB_0" departPos="5.10" departSpeed="0.00" departDelay="0.00" arrival="247.00" arrivalLane="Bs_0" arrivalPos="492.80" arrivalSpeed="9.65" duration="172.00" routeLength="994.90" waitingTime="59.00" waitingCount="1" stopTime="0.00" timeLoss="72.23" rerouteNo="0" devices="tripinfo_2.1" vType="paperVehicle" speedFactor="0.87" vaporized=""/>
    <tripinfo id="6.12" depart="93.00" departLane="nO_0" departPos="5.10" departSpeed="0.00" departDelay="4.00" arrival="247.00" arrivalLane="Os_0" arrivalPos="492.80" arrivalSpeed="9.43" duration="154.00" routeLength="994.90" waitingTime="38.00" waitingCount="1" stopTime="0.00" timeLoss="53.58" rerouteNo="0" devices="tripinfo_6.12" vType="paperVehicle" speedFactor="0.99" vaporized=""/>
    <tripinfo id="6.13" depart="96.00" departLane="nO_0" departPos="5.10" departSpeed="0.00" departDelay="6.00" arrival="249.00" arrivalLane="Os_0" arrivalPos="492.80" arrivalSpeed="9.76" duration="153.00" routeLength="994.90" waitingTime="35.00" waitingCount="1" stopTime="0.00" timeLoss="52.69" rerouteNo="0" devices="tripinfo_6.13" vType="paperVehicle" speedFactor="0.97" vaporized=""/>
    <tripinfo id="2.2" depart="95.00" departLane="nB_0" departPos="5.10" departSpeed="0.00" departDelay="0.00" arrival="250.00" arrivalLane="Bs_0" arrivalPos="492.80" arrivalSpeed="9.91" duration="155.00" routeLength="994.90" waitingTime="40.00" waitingCount="1" stopTime="0.00" timeLoss="55.20" rerouteNo="0" devices="tripinfo_2.2" vType="paperVehicle" speedFactor="1.10" vaporized=""/>
    <tripinfo id="6.14" depart="118.00" departLane="nO_0" departPos="5.10" departSpeed="0.00" departDelay="0.00" arrival="251.00" arrivalLane="Os_0" arrivalPos="492.80" arrivalSpeed="9.75" duration="133.00" routeLength="994.90" waitingTime="16.00" waitingCount="1" stopTime="0.00" timeLoss="32.84" rerouteNo="0" devices="tripinfo_6.14" vType="paperVehicle" speedFactor="1.04" vaporized=""/>
    <tripinfo id="2.3" depart="100.00" departLane="nB_0" departPos="5.10" departSpeed="0.00" departDelay="0.00" arrival="252.00" arrivalLane="Bs_0" arrivalPos="492.80" arrivalSpeed="9.59" duration="152.00" routeLength="994.90" waitingTime="37.00" waitingCount="1" stopTime="0.00" timeLoss="52.26" rerouteNo="0" devices="tripinfo_2.3" vType="paperVehicle" speedFactor="0.90" vaporized=""/>
    <tripinfo id="6.15" depart="124.00" departLane="nO_0" departPos="5.10" departSpeed="0.00" departDelay="0.00" arrival="253.00" arrivalLane="Os_0" arrivalPos="492.80" arrivalSpeed="9.45" duration="129.00" routeLength="994.90" waitingTime="14.00" waitingCount="1" stopTime="0.00" timeLoss="28.99" rerouteNo="0" devices="tripinfo_6.15" vType="paperVehicle" speedFactor="0.88" vaporized=""/>
    <tripinfo id="6.16" depart="132.00" departLane="nO_0" departPos="5.10" departSpeed="0.00" departDelay="0.00" arrival="255.00" arrivalLane="Os_0" arrivalPos="492.80" arrivalSpeed="9.06" duration="123.00" routeLength="994.90" waitingTime="7.00" waitingCount="1" stopTime="0.00" timeLoss="23.02" rerouteNo="0" devices="tripinfo_6.16" vType="paperVehicle" speedFactor="1.17" vaporized=""/>
    <tripinfo id="6.17" depart="135.00" departLane="nO_0" departPos="5.10" departSpeed="0.00" departDelay="1.00" arrival="257.00" arrivalLane="Os_0" arrivalPos="492.80" arrivalSpeed="8.71" duration="122.00" routeLength="994.90" waitingTime="5.00" waitingCount="1" stopTime="0.00" timeLoss="22.11" rerouteNo="0" devices="tripinfo_6.17" vType="paperVehicle" speedFactor="1.02" vaporized=""/>
    <tripinfo id="6.18" depart="140.00" departLane="nO_0" departPos="5.10" departSpeed="0.00" departDelay="0.00" arrival="259.00" arrivalLane="Os_0" arrivalPos="492.80" arrivalSpeed="9.91" duration="119.00" routeLength="994.90" waitingTime="2.00" waitingCount="1" stopTime="0.00" timeLoss="19.29" rerouteNo="0" devices="tripinfo_6.18" vType="paperVehicle" speedFactor="1.10" vaporized=""/>
    <tripinfo id="6.19" depart="143.00" departLane="nO_0" departPos="5.10" departSpeed="0.00" departDelay="0.00" arrival="261.00" arrivalLane="Os_0" arrivalPos="492.80" arrivalSpeed="9.15" duration="118.00" routeLength="994.90" waitingTime="0.00" waitingCount="0" stopTime="0.00" timeLoss="18.40" rerouteNo="0" devices="tripinfo_6.19" vType="paperVehicle" speedFactor="1.00" vaporized=""/>
    <tripinfo id="6.20" depart="146.00" departLane="nO_0" departPos="5.10" departSpeed="0.00" departDelay="2.00" arrival="264.00" arrivalLane="Os_0" arrivalPos="492.80" arrivalSpeed="9.86" duration="118.00" routeLength="994.90" waitingTime="1.00" waitingCount="1" stopTime="0.00" timeLoss="17.63" rerouteNo="0" devices="tripinfo_6.20" vType="paperVehicle" speedFactor="0.90" vaporized=""/>
    <tripinfo id="1.4" depart="119.00" departLane="nA_0" departPos="5.10" departSpeed="0.00" departDelay="0.00" arrival="285.00" arrivalLane="As_0" arrivalPos="492.80" arrivalSpeed="9.07" duration="166.00" routeLength="994.90" waitingTime="52.00" waitingCount="1" stopTime="0.00" timeLoss="65.85" rerouteNo="0" devices="tripinfo_1.4" vType="paperVehicle" speedFactor="1.09" vaporized=""/>
    <tripinfo id="3.4" depart="109.00" departLane="nC_0" departPos="5.10" departSpeed="0.00" departDelay="0.00" arrival="286.00" arrivalLane="Cs_0" arrivalPos="492.80" arrivalSpeed="9.49" duration="177.00" routeLength="994.90" waitingTime="63.00" waitingCount="1" stopTime="0.00" timeLoss="76.64" rerouteNo="0" devices="tripinfo_3.4" vType="paperVehicle" speedFactor="0.96" vaporized=""/>
    <tripinfo id="1.5" depart="122.00" departLane="nA_0" departPos="5.10" departSpeed="0.00" departDelay="0.00" arrival="287.00" arrivalLane="As_0" arrivalPos="492.80" arrivalSpeed="9.22" duration="165.00" routeLength="994.90" waitingTime="50.00" waitingCount="1" stopTime="0.00" timeLoss="65.15" rerouteNo="0" devices="tripinfo_1.5" vType="paperVehicle" speedFactor="1.00" vaporized=""/>
    <tripinfo id="3.5" depart="150.00" departLane="nC_0" departPos="5.10" departSpeed="0.00" departDelay="0.00" arrival="288.00" arrivalLane="Cs_0" arrivalPos="492.80" arrivalSpeed="9.96" duration="138.00" routeLength="994.90" waitingTime="25.00" waitingCount="1" stopTime="0.00" timeLoss="38.03" rerouteNo="0" devices="tripinfo_3.5" vType="paperVehicle" speedFactor="1.14" vaporized=""/>
    <tripinfo id="3.6" depart="154.00" departLane="nC_0" departPos="5.10" departSpeed="0.00" departDelay="0.00" arrival="290.00" arrivalLane="Cs_0" arrivalPos="492.80" arrivalSpeed="8.99" duration="136.00" routeLength="994.90" waitingTime="24.00" waitingCount="1" stopTime="0.00" timeLoss="36.45" rerouteNo="0" devices="tripinfo_3.6" vType="paperVehicle" speedFactor="0.97" vaporized=""/>
    <tripinfo id="3.7" depart="159.00" departLane="nC_0" departPos="5.10" departSpeed="0.00" departDelay="0.00" arrival="292.00" arrivalLane="Cs_0" arrivalPos="492.80" arrivalSpeed="9.26" duration="133.00" routeLength="994.90" waitingTime="19.00" waitingCount="1" stopTime="0.00" timeLoss="33.45" rerouteNo="0" devices="tripinfo_3.7" vType="paperVehicle" speedFactor="1.12" vaporized=""/>
    <tripinfo id="6.21" depart="164.00" departLane="nO_0" departPos="5.10" departSpeed="0.00" departDelay="0.00" arrival="325.00" arrivalLane="Os_0" arrivalPos="492.80" arrivalSpeed="9.93" duration="161.00" routeLength="994.90" waitingTime="47.00" waitingCount="1" stopTime="0.00" timeLoss="60.76" rerouteNo="0" devices="tripinfo_6.21" vType="paperVehicle" speedFactor="1.02" vaporized=""/>
    <tripinfo id="6.22" depart="168.00" departLane="nO_0" departPos="5.10" departSpeed="0.00" departDelay="0.00" arrival="327.00" arrivalLane="Os_0" arrivalPos="492.80" arrivalSpeed="8.71" duration="159.00" routeLength="994.90" waitingTime="47.00" waitingCount="1" stopTime="0.00" timeLoss="59.02" rerouteNo="0" devices="tripinfo_6.22" vType="paperVehicle" speedFactor="0.94" vaporized=""/>
    <tripinfo id="6.23" depart="198.00" departLane="nO_0" departPos="5.10" departSpeed="0.00" departDelay="0.00" arrival="329.00" arrivalLane="Os_0" arrivalPos="492.80" arrivalSpeed="8.94" duration="131.00" routeLength="994.90" waitingTime="19.00" waitingCount="1" stopTime="0.00" timeLoss="30.99" rerouteNo="0" devices="tripinfo_6.23" vType="paperVehicle" speedFactor="0.97" vaporized=""/>
    <tripinfo id="6.24" depart="201.00" departLane="nO_0" departPos="5.10" departSpeed="0.00" departDelay="1.00" arrival="331.00" arrivalLane="Os_0" arrivalPos="492.80" arrivalSpeed="9.65" duration="130.00" routeLength="994.90" waitingTime="15.00" waitingCount="1" stopTime="0.00" timeLoss="30.11" rerouteNo="0" devices="tripinfo_6.24" vType="paperVehicle" speedFactor="1.06" vaporized=""/>
    <tripinfo id="6.25" depart="225.00" departLane="nO_0" departPos="5.10" departSpeed="0.00" departDelay="0.00" arrival="334.00" arrivalLane="Os_0" arrivalPos="492.80" arrivalSpeed="9.57" duration="109.00" routeLength="994.90" waitingTime="0.00" waitingCount="0" stopTime="0.00" timeLoss="8.61" rerouteNo="0" devices="tripinfo_6.25" vType="paperVehicle" speedFactor="0.98" vaporized=""/>
    <tripinfo id="4.2" depart="200.00" departLane="nD_0" departPos="5.10" departSpeed="0.00" departDelay="0.00" arrival="335.00" arrivalLane="Ds_0" arrivalPos="492.80" arrivalSpeed="9.90" duration="135.00" routeLength="994.90" waitingTime="22.00" waitingCount="1" stopTime="0.00" timeLoss="35.51" rerouteNo="0" devices="tripinfo_4.2" vType="paperVehicle" speedFactor="0.94" vaporized=""/>
    <tripinfo id="2.4" depart="114.00" departLane="nB_0" departPos="5.10" departSpeed="0.00" departDelay="0.00" arrival="336.00" arrivalLane="Bs_0" arrivalPos="492.80" arrivalSpeed="9.24" duration="222.00" routeLength="994.90" waitingTime="104.00" waitingCount="2" stopTime="0.00" timeLoss="122.17" rerouteNo="0" devices="tripinfo_2.4" vType="paperVehicle" speedFactor="1.09" vaporized=""/>
    <tripinfo id="2.5" depart="142.00" departLane="nB_0" departPos="5.10" departSpeed="0.00" departDelay="0.00" arrival="338.00" arrivalLane="Bs_0" arrivalPos="492.80" arrivalSpeed="9.89" duration="196.00" routeLength="994.90" waitingTime="78.00" waitingCount="1" stopTime="0.00" timeLoss="96.26" rerouteNo="0" devices="tripinfo_2.5" vType="paperVehicle" speedFactor="1.00" vaporized=""/>
    <tripinfo id="6.26" depart="238.00" departLane="nO_0" departPos="5.10" departSpeed="0.00" departDelay="0.00" arrival="346.00" arrivalLane="Os_0" arrivalPos="492.80" arrivalSpeed="9.66" duration="108.00" routeLength="994.90" waitingTime="0.00" waitingCount="0" stopTime="0.00" timeLoss="8.27" rerouteNo="0" devices="tripinfo_6.26" vType="paperVehicle" speedFactor="1.09" vaporized=""/>
    <tripinfo id="6.27" depart="241.00" departLane="nO_0" departPos="5.10" departSpeed="0.00" departDelay="1.00" arrival="349.00" arrivalLane="Os_0" arrivalPos="492.80" arrivalSpeed="9.85" duration="108.00" routeLength="994.90" waitingTime="0.00" waitingCount="0" stopTime="0.00" timeLoss="8.52" rerouteNo="0" devices="tripinfo_6.27" vType="paperVehicle" speedFactor="1.00" vaporized=""/>
    <tripinfo id="5.0" depart="10.00" departLane="wO_0" departPos="5.10" departSpeed="0.00" departDelay="0.00" arrival="350.00" arrivalLane="De_0" arrivalPos="496.00" arrivalSpeed="9.56" duration="340.00" routeLength="2994.90" waitingTime="15.00" waitingCount="1" stopTime="0.00" timeLoss="40.46" rerouteNo="0" devices="tripinfo_5.0" vType="paperVehicle" speedFactor="1.08" vaporized=""/>
    <tripinfo id="6.28" depart="244.00" departLane="nO_0" departPos="5.10" departSpeed="0.00" departDelay="3.00" arrival="353.00" arrivalLane="Os_0" arrivalPos="492.80" arrivalSpeed="9.45" duration="109.00" routeLength="994.90" waitingTime="0.00" waitingCount="0" stopTime="0.00" timeLoss="9.05" rerouteNo="0" devices="tripinfo_6.28" vType="paperVehicle" speedFactor="1.02" vaporized=""/>
    <tripinfo id="5.1" depart="13.00" departLane="wO_0" departPos="5.10" departSpeed="0.00" departDelay="1.00" arrival="355.00" arrivalLane="De_0" arrivalPos="496.00" arrivalSpeed="9.09" duration="342.00" routeLength="2994.90" waitingTime="13.00" waitingCount="1" stopTime="0.00" timeLoss="41.84" rerouteNo="0" devices="tripinfo_5.1" vType="paperVehicle" speedFactor="1.03" vaporized=""/>
    <tripinfo id="6.29" depart="247.00" departLane="nO_0" departPos="5.10" departSpeed="0.00" departDelay="4.00" arrival="355.00" arrivalLane="Os_0" arrivalPos="492.80" arrivalSpeed="8.87" duration="108.00" routeLength="994.90" waitingTime="0.00" waitingCount="0" stopTime="0.00" timeLoss="8.44" rerouteNo="0" devices="tripinfo_6.29" vType="paperVehicle" speedFactor="0.97" vaporized=""/>
    <tripinfo id="5.2" depart="16.00" departLane="wO_0" departPos="5.10" departSpeed="0.00" departDelay="0.00" arrival="357.00" arrivalLane="De_0" arrivalPos="496.00" arrivalSpeed="9.57" duration="341.00" routeLength="2994.90" waitingTime="13.00" waitingCount="1" stopTime="0.00" timeLoss="40.86" rerouteNo="0" devices="tripinfo_5.2" vType="paperVehicle" speedFactor="0.94" vaporized=""/>
    <tripinfo id="5.3" depart="24.00" departLane="wO_0" departPos="5.10" departSpeed="0.00" departDelay="0.00" arrival="367.00" arrivalLane="De_0" arrivalPos="496.00" arrivalSpeed="9.04" duration="343.00" routeLength="2994.90" waitingTime="16.00" waitingCount="1" stopTime="0.00" timeLoss="42.86" rerouteNo="0" devices="tripinfo_5.3" vType="paperVehicle" speedFactor="1.09" vaporized=""/>
    <tripinfo id="5.4" depart="28.00" departLane="wO_0" departPos="5.10" departSpeed="0.00" departDelay="0.00" arrival="370.00" arrivalLane="De_0" arrivalPos="496.00" arrivalSpeed="9.02" duration="342.00" routeLength="2994.90" waitingTime="15.00" waitingCount="1" stopTime="0.00" timeLoss="41.69" rerouteNo="0" devices="tripinfo_5.4" vType="paperVehicle" speedFactor="1.03" vaporized=""/>
    <tripinfo id="1.6" depart="187.00" departLane="nA_0" departPos="5.10" departSpeed="0.00" departDelay="0.00" arrival="375.00" arrivalLane="As_0" arrivalPos="492.80" arrivalSpeed="9.75" duration="188.00" routeLength="994.90" waitingTime="75.00" waitingCount="1" stopTime="0.00" timeLoss="88.05" rerouteNo="0" devices="tripinfo_1.6" vType="paperVehicle" speedFactor="0.91" vaporized=""/>
    <tripinfo id="3.8" depart="239.00" departLane="nC_0" departPos="5.10" departSpeed="0.00" departDelay="0.00" arrival="375.00" arrivalLane="Cs_0" arrivalPos="492.80" arrivalSpeed="9.30" duration="136.00" routeLength="994.90" waitingTime="24.00" waitingCount="1" stopTime="0.00" timeLoss="36.36" rerouteNo="0" devices="tripinfo_3.8" vType="paperVehicle" speedFactor="1.03" vaporized=""/>
    <tripinfo id="5.5" depart="40.00" departLane="wO_0" departPos="5.10" departSpeed="0.00" departDelay="0.00" arrival="397.00" arrivalLane="De_0" arrivalPos="496.00" arrivalSpeed="9.12" duration="357.00" routeLength="2994.90" waitingTime="30.00" waitingCount="1" stopTime="0.00" timeLoss="57.26" rerouteNo="0" devices="tripinfo_5.5" vType="paperVehicle" speedFactor="0.93" vaporized=""/>
    <tripinfo id="5.6" depart="68.00" departLane="wO_0" departPos="5.10" departSpeed="0.00" departDelay="0.00" arrival="400.00" arrivalLane="De_0" arrivalPos="496.00" arrivalSpeed="9.98" duration="332.00" routeLength="2994.90" waitingTime="4.00" waitingCount="1" stopTime="0.00" timeLoss="31.69" rerouteNo="0" devices="tripinfo_5.6" vType="paperVehicle" speedFactor="0.98" vaporized=""/>
    <tripinfo id="5.7" depart="83.00" departLane="wO_0" departPos="5.10" departSpeed="0.00" departDelay="0.00" arrival="407.00" arrivalLane="De_0" arrivalPos="496.00" arrivalSpeed="9.48" duration="324.00" routeLength="2994.90" waitingTime="0.00" waitingCount="0" stopTime="0.00" timeLoss="24.02" rerouteNo="0" devices="tripinfo_5.7" vType="paperVehicle" speedFactor="0.95" vaporized=""/>
    <tripinfo id="5.8" depart="88.00" departLane="wO_0" departPos="5.10" departSpeed="0.00" departDelay="0.00" arrival="412.00" arrivalLane="De_0" arrivalPos="496.00" arrivalSpeed="9.51" duration="324.00" routeLength="2994.90" waitingTime="0.00" waitingCount="0" stopTime="0.00" timeLoss="23.63" rerouteNo="0" devices="tripinfo_5.8" vType="paperVehicle" speedFactor="1.15" vaporized=""/>
    <tripinfo id="5.9" depart="91.00" departLane="wO_0" departPos="5.10" departSpeed="0.00" departDelay="2.00" arrival="414.00" arrivalLane="De_0" arrivalPos="496.00" arrivalSpeed="9.25" duration="323.00" routeLength="2994.90" waitingTime="0.00" waitingCount="0" stopTime="0.00" timeLoss="22.96" rerouteNo="0" devices="tripinfo_5.9" vType="paperVehicle" speedFactor="1.17" vaporized=""/>
    <tripinfo id="6.30" depart="250.00" departLane="nO_0" departPos="5.10" departSpeed="0.00" departDelay="4.00" arrival="416.00" arrivalLane="Os_0" arrivalPos="492.80" arrivalSpeed="9.81" duration="166.00" routeLength="994.90" waitingTime="50.00" waitingCount="1" stopTime="0.00" timeLoss="65.75" rerouteNo="0" devices="tripinfo_6.30" vType="paperVehicle" speedFactor="1.00" vaporized=""/>
    <tripinfo id="5.10" depart="94.00" departLane="wO_0" departPos="5.10" departSpeed="0.00" departDelay="4.00" arrival="417.00" arrivalLane="De_0" arrivalPos="496.00" arrivalSpeed="9.93" duration="323.00" routeLength="2994.90" waitingTime="0.00" waitingCount="0" stopTime="0.00" timeLoss="23.24" rerouteNo="0" devices="tripinfo_5.10" vType="paperVehicle" speedFactor="1.02" vaporized=""/>
    <tripinfo id="6.31" depart="253.00" departLane="nO_0" departPos="5.10" departSpeed="0.00" departDelay="6.00" arrival="418.00" arrivalLane="Os_0" arrivalPos="492.80" arrivalSpeed="8.79" duration="165.00" routeLength="994.90" waitingTime="50.00" waitingCount="1" stopTime="0.00" timeLoss="65.22" rerouteNo="0" devices="tripinfo_6.31" vType="paperVehicle" speedFactor="1.04" vaporized=""/>
    <tripinfo id="6.32" depart="259.00" departLane="nO_0" departPos="5.10" departSpeed="0.00" departDelay="0.00" arrival="420.00" arrivalLane="Os_0" arrivalPos="492.80" arrivalSpeed="8.76" duration="161.00" routeLength="994.90" waitingTime="46.00" waitingCount="1" stopTime="0.00" timeLoss="61.35" rerouteNo="0" devices="tripinfo_6.32" vType="paperVehicle" speedFactor="1.02" vaporized=""/>
    <tripinfo id="6.33" depart="265.00" departLane="nO_0" departPos="5.10" departSpeed="0.00" departDelay="0.00" arrival="422.00" arrivalLane="Os_0" arrivalPos="492.80" arrivalSpeed="9.28" duration="157.00" routeLength="994.90" waitingTime="43.00" waitingCount="1" stopTime="0.00" timeLoss="57.26" rerouteNo="0" devices="tripinfo_6.33" vType="paperVehicle" speedFactor="0.83" vaporized=""/>
    <tripinfo id="6.34" depart="268.00" departLane="nO_0" departPos="5.10" departSpeed="0.00" departDelay="2.00" arrival="424.00" arrivalLane="Os_0" arrivalPos="492.80" arrivalSpeed="8.79" duration="156.00" routeLength="994.90" waitingTime="41.00" waitingCount="1" stopTime="0.00" timeLoss="56.50" rerouteNo="0" devices="tripinfo_6.34" vType="paperVehicle" speedFactor="0.92" vaporized=""/>
    <tripinfo id="4.3" depart="245.00" departLane="nD_0" departPos="5.10" departSpeed="0.00" departDelay="0.00" arrival="425.00" arrivalLane="Ds_0" arrivalPos="492.80" arrivalSpeed="9.62" duration="180.00" routeLength="994.90" waitingTime="68.00" waitingCount="1" stopTime="0.00" timeLoss="80.19" rerouteNo="0" devices="tripinfo_4.3" vType="paperVehicle" speedFactor="1.15" vaporized=""/>
    <tripinfo id="2.6" depart="297.00" departLane="nB_0" departPos="5.10" departSpeed="0.00" departDelay="0.00" arrival="425.00" arrivalLane="Bs_0" arrivalPos="492.80" arrivalSpeed="9.86" duration="128.00" routeLength="994.90" waitingTime="15.00" waitingCount="1" stopTime="0.00" timeLoss="28.42" rerouteNo="0" devices="tripinfo_2.6" vType="paperVehicle" speedFactor="0.96" vaporized=""/>