<?xml version="1.0" encoding="UTF-8"?>

<!-- generated on 2022-01-25 13:57:24 by Eclipse SUMO sumo Version 1.10.0
<configuration xmlns:xsi="http://www.w3.org/2001/XMLSchema-instance" xsi:noNamespaceSchemaLocation="http://sumo.dlr.de/xsd/sumoConfiguration.xsd">

    <input>
        <net-file value="C:\Users\Marcus\Desktop\Hauptordner\Studium\Masterstudium\3.%20Semester\Projekt_Sim-Opt\Traffic_Simulation\arterial\arterialnet.net.xml"/>
        <route-files value="C:\Users\Marcus\Desktop\Hauptordner\Studium\Masterstudium\3.%20Semester\Projekt_Sim-Opt\Traffic_Simulation\arterial\arterialRoutes.xml"/>
        <additional-files value="C:\Users\Marcus\Desktop\Hauptordner\Studium\Masterstudium\3.%20Semester\Projekt_Sim-Opt\Traffic_Simulation\arterial\additionals.xml"/>
    </input>

    <output>
        <tripinfo-output value="../tripinfo.xml"/>
        <statistic-output value="../statistics.xml"/>
    </output>

    <report>
        <no-step-log value="true"/>
    </report>

    <traci_server>
        <remote-port value="52677"/>
    </traci_server>

</configuration>
-->

<tripinfos xmlns:xsi="http://www.w3.org/2001/XMLSchema-instance" xsi:noNamespaceSchemaLocation="http://sumo.dlr.de/xsd/tripinfo_file.xsd">
    <tripinfo id="5.0" depart="6.00" departLane="nO_0" departPos="5.10" departSpeed="0.00" departDelay="0.00" arrival="129.00" arrivalLane="Os_0" arrivalPos="492.80" arrivalSpeed="9.51" duration="123.00" routeLength="994.90" waitingTime="10.00" waitingCount="1" stopTime="0.00" timeLoss="23.06" rerouteNo="0" devices="tripinfo_5.0" vType="paperVehicle" speedFactor="0.94" vaporized=""/>
    <tripinfo id="5.1" depart="27.00" departLane="nO_0" departPos="5.10" departSpeed="0.00" departDelay="0.00" arrival="136.00" arrivalLane="Os_0" arrivalPos="492.80" arrivalSpeed="10.00" duration="109.00" routeLength="994.90" waitingTime="0.00" waitingCount="0" stopTime="0.00" timeLoss="9.24" rerouteNo="0" devices="tripinfo_5.1" vType="paperVehicle" speedFactor="0.89" vaporized=""/>
    <tripinfo id="5.2" depart="39.00" departLane="nO_0" departPos="5.10" departSpeed="0.00" departDelay="0.00" arrival="148.00" arrivalLane="Os_0" arrivalPos="492.80" arrivalSpeed="9.07" duration="109.00" routeLength="994.90" waitingTime="0.00" waitingCount="0" stopTime="0.00" timeLoss="8.77" rerouteNo="0" devices="tripinfo_5.2" vType="paperVehicle" speedFactor="0.94" vaporized=""/>
    <tripinfo id="3.0" depart="58.00" departLane="nD_0" departPos="5.10" departSpeed="0.00" departDelay="0.00" arrival="167.00" arrivalLane="Ds_0" arrivalPos="492.80" arrivalSpeed="9.27" duration="109.00" routeLength="994.90" waitingTime="0.00" waitingCount="0" stopTime="0.00" timeLoss="9.31" rerouteNo="0" devices="tripinfo_3.0" vType="paperVehicle" speedFactor="1.12" vaporized=""/>
    <tripinfo id="3.1" depart="90.00" departLane="nD_0" departPos="5.10" departSpeed="0.00" departDelay="0.00" arrival="199.00" arrivalLane="Ds_0" arrivalPos="492.80" arrivalSpeed="9.36" duration="109.00" routeLength="994.90" waitingTime="0.00" waitingCount="0" stopTime="0.00" timeLoss="9.26" rerouteNo="0" devices="tripinfo_3.1" vType="paperVehicle" speedFactor="0.94" vaporized=""/>
    <tripinfo id="2.0" depart="98.00" departLane="nC_0" departPos="5.10" departSpeed="0.00" departDelay="0.00" arrival="207.00" arrivalLane="Cs_0" arrivalPos="492.80" arrivalSpeed="9.99" duration="109.00" routeLength="994.90" waitingTime="0.00" waitingCount="0" stopTime="0.00" timeLoss="8.54" rerouteNo="0" devices="tripinfo_2.0" vType="paperVehicle" speedFactor="1.01" vaporized=""/>
    <tripinfo id="3.2" depart="104.00" departLane="nD_0" departPos="5.10" departSpeed="0.00" departDelay="0.00" arrival="213.00" arrivalLane="Ds_0" arrivalPos="492.80" arrivalSpeed="9.35" duration="109.00" routeLength="994.90" waitingTime="0.00" waitingCount="0" stopTime="0.00" timeLoss="9.06" rerouteNo="0" devices="tripinfo_3.2" vType="paperVehicle" speedFactor="0.98" vaporized=""/>
    <tripinfo id="5.3" depart="105.00" departLane="nO_0" departPos="5.10" departSpeed="0.00" departDelay="0.00" arrival="214.00" arrivalLane="Os_0" arrivalPos="492.80" arrivalSpeed="8.79" duration="109.00" routeLength="994.90" waitingTime="0.00" waitingCount="0" stopTime="0.00" timeLoss="8.88" rerouteNo="0" devices="tripinfo_5.3" vType="paperVehicle" speedFactor="0.89" vaporized=""/>
    <tripinfo id="2.1" depart="111.00" departLane="nC_0" departPos="5.10" departSpeed="0.00" departDelay="0.00" arrival="219.00" arrivalLane="Cs_0" arrivalPos="492.80" arrivalSpeed="9.15" duration="108.00" routeLength="994.90" waitingTime="0.00" waitingCount="0" stopTime="0.00" timeLoss="8.46" rerouteNo="0" devices="tripinfo_2.1" vType="paperVehicle" speedFactor="0.83" vaporized=""/>
    <tripinfo id="0.0" depart="92.00" departLane="nA_0" departPos="5.10" departSpeed="0.00" departDelay="0.00" arrival="228.00" arrivalLane="As_0" arrivalPos="492.80" arrivalSpeed="9.23" duration="136.00" routeLength="994.90" waitingTime="22.00" waitingCount="1" stopTime="0.00" timeLoss="36.19" rerouteNo="0" devices="tripinfo_0.0" vType="paperVehicle" speedFactor="0.94" vaporized=""/>
    <tripinfo id="3.3" depart="128.00" departLane="nD_0" departPos="5.10" departSpeed="0.00" departDelay="0.00" arrival="237.00" arrivalLane="Ds_0" arrivalPos="492.80" arrivalSpeed="9.02" duration="109.00" routeLength="994.90" waitingTime="0.00" waitingCount="0" stopTime="0.00" timeLoss="8.88" rerouteNo="0" devices="tripinfo_3.3" vType="paperVehicle" speedFactor="0.95" vaporized=""/>
    <tripinfo id="5.4" depart="132.00" departLane="nO_0" departPos="5.10" departSpeed="0.00" departDelay="0.00" arrival="242.00" arrivalLane="Os_0" arrivalPos="492.80" arrivalSpeed="8.88" duration="110.00" routeLength="994.90" waitingTime="0.00" waitingCount="0" stopTime="0.00" timeLoss="9.68" rerouteNo="0" devices="tripinfo_5.4" vType="paperVehicle" speedFactor="0.93" vaporized=""/>
    <tripinfo id="3.4" depart="144.00" departLane="nD_0" departPos="5.10" departSpeed="0.00" departDelay="0.00" arrival="253.00" arrivalLane="Ds_0" arrivalPos="492.80" arrivalSpeed="9.43" duration="109.00" routeLength="994.90" waitingTime="0.00" waitingCount="0" stopTime="0.00" timeLoss="9.34" rerouteNo="0" devices="tripinfo_3.4" vType="paperVehicle" speedFactor="1.15" vaporized=""/>
    <tripinfo id="5.5" depart="145.00" departLane="nO_0" departPos="5.10" departSpeed="0.00" departDelay="0.00" arrival="274.00" arrivalLane="Os_0" arrivalPos="492.80" arrivalSpeed="9.69" duration="129.00" routeLength="994.90" waitingTime="18.00" waitingCount="1" stopTime="0.00" timeLoss="29.30" rerouteNo="0" devices="tripinfo_5.5" vType="paperVehicle" speedFactor="1.17" vaporized=""/>
    <tripinfo id="5.6" depart="148.00" departLane="nO_0" departPos="5.10" departSpeed="0.00" departDelay="0.00" arrival="277.00" arrivalLane="Os_0" arrivalPos="492.80" arrivalSpeed="9.32" duration="129.00" routeLength="994.90" waitingTime="16.00" waitingCount="1" stopTime="0.00" timeLoss="28.73" rerouteNo="0" devices="tripinfo_5.6" vType="paperVehicle" speedFactor="0.99" vaporized=""/>
    <tripinfo id="0.1" depart="151.00" departLane="nA_0" departPos="5.10" departSpeed="0.00" departDelay="0.00" arrival="277.00" arrivalLane="As_0" arrivalPos="492.80" arrivalSpeed="9.30" duration="126.00" routeLength="994.90" waitingTime="13.00" waitingCount="1" stopTime="0.00" timeLoss="26.22" rerouteNo="0" devices="tripinfo_0.1" vType="paperVehicle" speedFactor="0.97" vaporized=""/>
    <tripinfo id="5.7" depart="151.00" departLane="nO_0" departPos="5.10" departSpeed="0.00" departDelay="1.00" arrival="279.00" arrivalLane="Os_0" arrivalPos="492.80" arrivalSpeed="9.51" duration="128.00" routeLength="994.90" waitingTime="14.00" waitingCount="1" stopTime="0.00" timeLoss="28.14" rerouteNo="0" devices="tripinfo_5.7" vType="paperVehicle" speedFactor="1.02" vaporized=""/>
    <tripinfo id="0.2" depart="162.00" departLane="nA_0" departPos="5.10" departSpeed="0.00" departDelay="0.00" arrival="280.00" arrivalLane="As_0" arrivalPos="492.80" arrivalSpeed="8.96" duration="118.00" routeLength="994.90" waitingTime="3.00" waitingCount="1" stopTime="0.00" timeLoss="17.93" rerouteNo="0" devices="tripinfo_0.2" vType="paperVehicle" speedFactor="1.10" vaporized=""/>
    <tripinfo id="5.8" depart="164.00" departLane="nO_0" departPos="5.10" departSpeed="0.00" departDelay="0.00" arrival="281.00" arrivalLane="Os_0" arrivalPos="492.80" arrivalSpeed="9.97" duration="117.00" routeLength="994.90" waitingTime="4.00" waitingCount="1" stopTime="0.00" timeLoss="17.18" rerouteNo="0" devices="tripinfo_5.8" vType="paperVehicle" speedFactor="0.90" vaporized=""/>
    <tripinfo id="2.2" depart="172.00" departLane="nC_0" departPos="5.10" departSpeed="0.00" departDelay="0.00" arrival="281.00" arrivalLane="Cs_0" arrivalPos="492.80" arrivalSpeed="9.30" duration="109.00" routeLength="994.90" waitingTime="0.00" waitingCount="0" stopTime="0.00" timeLoss="8.85" rerouteNo="0" devices="tripinfo_2.2" vType="paperVehicle" speedFactor="1.03" vaporized=""/>
    <tripinfo id="0.3" depart="179.00" departLane="nA_0" departPos="5.10" departSpeed="0.00" departDelay="0.00" arrival="287.00" arrivalLane="As_0" arrivalPos="492.80" arrivalSpeed="9.61" duration="108.00" routeLength="994.90" waitingTime="0.00" waitingCount="0" stopTime="0.00" timeLoss="8.41" rerouteNo="0" devices="tripinfo_0.3" vType="paperVehicle" speedFactor="1.04" vaporized=""/>
    <tripinfo id="5.9" depart="181.00" departLane="nO_0" departPos="5.10" departSpeed="0.00" departDelay="0.00" arrival="289.00" arrivalLane="Os_0" arrivalPos="492.80" arrivalSpeed="8.78" duration="108.00" routeLength="994.90" waitingTime="0.00" waitingCount="0" stopTime="0.00" timeLoss="8.24" rerouteNo="0" devices="tripinfo_5.9" vType="paperVehicle" speedFactor="1.04" vaporized=""/>
    <tripinfo id="5.10" depart="184.00" departLane="nO_0" departPos="5.10" departSpeed="0.00" departDelay="0.00" arrival="293.00" arrivalLane="Os_0" arrivalPos="492.80" arrivalSpeed="8.74" duration="109.00" routeLength="994.90" waitingTime="0.00" waitingCount="0" stopTime="0.00" timeLoss="9.46" rerouteNo="0" devices="tripinfo_5.10" vType="paperVehicle" speedFactor="1.09" vaporized=""/>
    <tripinfo id="1.0" depart="178.00" departLane="nB_0" departPos="5.10" departSpeed="0.00" departDelay="0.00" arrival="299.00" arrivalLane="Bs_0" arrivalPos="492.80" arrivalSpeed="9.54" duration="121.00" routeLength="994.90" waitingTime="8.00" waitingCount="1" stopTime="0.00" timeLoss="21.02" rerouteNo="0" devices="tripinfo_1.0" vType="paperVehicle" speedFactor="1.09" vaporized=""/>
    <tripinfo id="2.3" depart="200.00" departLane="nC_0" departPos="5.10" departSpeed="0.00" departDelay="0.00" arrival="318.00" arrivalLane="Cs_0" arrivalPos="492.80" arrivalSpeed="9.47" duration="118.00" routeLength="994.90" waitingTime="5.00" waitingCount="1" stopTime="0.00" timeLoss="17.82" rerouteNo="0" devices="tripinfo_2.3" vType="paperVehicle" speedFactor="0.90" vaporized=""/>
    <tripinfo id="2.4" depart="215.00" departLane="nC_0" departPos="5.10" departSpeed="0.00" departDelay="0.00" arrival="323.00" arrivalLane="Cs_0" arrivalPos="492.80" arrivalSpeed="9.56" duration="108.00" routeLength="994.90" waitingTime="0.00" waitingCount="0" stopTime="0.00" timeLoss="7.94" rerouteNo="0" devices="tripinfo_2.4" vType="paperVehicle" speedFactor="0.85" vaporized=""/>
    <tripinfo id="2.5" depart="221.00" departLane="nC_0" departPos="5.10" departSpeed="0.00" departDelay="0.00" arrival="330.00" arrivalLane="Cs_0" arrivalPos="492.80" arrivalSpeed="9.77" duration="109.00" routeLength="994.90" waitingTime="0.00" waitingCount="0" stopTime="0.00" timeLoss="8.87" rerouteNo="0" devices="tripinfo_2.5" vType="paperVehicle" speedFactor="1.10" vaporized=""/>
    <tripinfo id="5.11" depart="206.00" departLane="nO_0" departPos="5.10" departSpeed="0.00" departDelay="0.00" arrival="334.00" arrivalLane="Os_0" arrivalPos="492.80" arrivalSpeed="9.77" duration="128.00" routeLength="994.90" waitingTime="14.00" waitingCount="1" stopTime="0.00" timeLoss="28.09" rerouteNo="0" devices="tripinfo_5.11" vType="paperVehicle" speedFactor="0.88" vaporized=""/>
    <tripinfo id="3.5" depart="216.00" departLane="nD_0" departPos="5.10" departSpeed="0.00" departDelay="0.00" arrival="335.00" arrivalLane="Ds_0" arrivalPos="492.80" arrivalSpeed="9.20" duration="119.00" routeLength="994.90" waitingTime="5.00" waitingCount="1" stopTime="0.00" timeLoss="18.84" rerouteNo="0" devices="tripinfo_3.5" vType="paperVehicle" speedFactor="1.17" vaporized=""/>
    <tripinfo id="5.12" depart="212.00" departLane="nO_0" departPos="5.10" departSpeed="0.00" departDelay="0.00" arrival="336.00" arrivalLane="Os_0" arrivalPos="492.80" arrivalSpeed="9.71" duration="124.00" routeLength="994.90" waitingTime="10.00" waitingCount="1" stopTime="0.00" timeLoss="24.40" rerouteNo="0" devices="tripinfo_5.12" vType="paperVehicle" speedFactor="0.85" vaporized=""/>
    <tripinfo id="5.13" depart="235.00" departLane="nO_0" departPos="5.10" departSpeed="0.00" departDelay="0.00" arrival="344.00" arrivalLane="Os_0" arrivalPos="492.80" arrivalSpeed="9.80" duration="109.00" routeLength="994.90" waitingTime="0.00" waitingCount="0" stopTime="0.00" timeLoss="9.39" rerouteNo="0" devices="tripinfo_5.13" vType="paperVehicle" speedFactor="1.00" vaporized=""/>
    <tripinfo id="5.14" depart="238.00" departLane="nO_0" departPos="5.10" departSpeed="0.00" departDelay="1.00" arrival="347.00" arrivalLane="Os_0" arrivalPos="492.80" arrivalSpeed="9.76" duration="109.00" routeLength="994.90" waitingTime="0.00" waitingCount="0" stopTime="0.00" timeLoss="8.90" rerouteNo="0" devices="tripinfo_5.14" vType="paperVehicle" speedFactor="1.00" vaporized=""/>
    <tripinfo id="4.0" depart="1.00" departLane="wO_0" departPos="5.10" departSpeed="0.00" departDelay="0.00" arrival="359.00" arrivalLane="De_0" arrivalPos="496.00" arrivalSpeed="9.25" duration="358.00" routeLength="2994.90" waitingTime="30.00" waitingCount="2" stopTime="0.00" timeLoss="58.28" rerouteNo="0" devices="tripinfo_4.0" vType="paperVehicle" speedFactor="1.06" vaporized=""/>
    <tripinfo id="5.15" depart="252.00" departLane="nO_0" departPos="5.10" departSpeed="0.00" departDelay="0.00" arrival="361.00" arrivalLane="Os_0" arrivalPos="492.80" arrivalSpeed="9.40" duration="109.00" routeLength="994.90" waitingTime="0.00" waitingCount="0" stopTime="0.00" timeLoss="9.41" rerouteNo="0" devices="tripinfo_5.15" vType="paperVehicle" speedFactor="0.97" vaporized=""/>
    <tripinfo id="4.1" depart="11.00" departLane="wO_0" departPos="5.10" departSpeed="0.00" departDelay="0.00" arrival="362.00" arrivalLane="De_0" arrivalPos="496.00" arrivalSpeed="9.72" duration="351.00" routeLength="2994.90" waitingTime="19.00" waitingCount="2" stopTime="0.00" timeLoss="51.13" rerouteNo="0" devices="tripinfo_4.1" vType="paperVehicle" speedFactor="1.01" vaporized=""/>
    <tripinfo id="5.16" depart="259.00" departLane="nO_0" departPos="5.10" departSpeed="0.00" departDelay="0.00" arrival="369.00" arrivalLane="Os_0" arrivalPos="492.80" arrivalSpeed="9.80" duration="110.00" routeLength="994.90" waitingTime="0.00" waitingCount="0" stopTime="0.00" timeLoss="10.16" rerouteNo="0" devices="tripinfo_5.16" vType="paperVehicle" speedFactor="1.08" vaporized=""/>
    <tripinfo id="5.17" depart="268.00" departLane="nO_0" departPos="5.10" departSpeed="0.00" departDelay="0.00" arrival="377.00" arrivalLane="Os_0" arrivalPos="492.80" arrivalSpeed="9.98" duration="109.00" routeLength="994.90" waitingTime="0.00" waitingCount="0" stopTime="0.00" timeLoss="8.97" rerouteNo="0" devices="tripinfo_5.17" vType="paperVehicle" speedFactor="0.99" vaporized=""/>
    <tripinfo id="5.18" depart="271.00" departLane="nO_0" departPos="5.10" departSpeed="0.00" departDelay="2.00" arrival="380.00" arrivalLane="Os_0" arrivalPos="492.80" arrivalSpeed="8.76" duration="109.00" routeLength="994.90" waitingTime="0.00" waitingCount="0" stopTime="0.00" timeLoss="8.97" rerouteNo="0" devices="tripinfo_5.18" vType="paperVehicle" speedFactor="0.94" vaporized=""/>
    <tripinfo id="1.1" depart="280.00" departLane="nB_0" departPos="5.10" departSpeed="0.00" departDelay="0.00" arrival="389.00" arrivalLane="Bs_0" arrivalPos="492.80" arrivalSpeed="9.98" duration="109.00" routeLength="994.90" waitingTime="0.00" waitingCount="0" stopTime="0.00" timeLoss="8.67" rerouteNo="0" devices="tripinfo_1.1" vType="paperVehicle" speedFactor="0.91" vaporized=""/>
    <tripinfo id="3.6" depart="286.00" departLane="nD_0" departPos="5.10" departSpeed="0.00" departDelay="0.00" arrival="395.00" arrivalLane="Ds_0" arrivalPos="492.80" arrivalSpeed="8.85" duration="109.00" routeLength="994.90" waitingTime="0.00" waitingCount="0" stopTime="0.00" timeLoss="8.88" rerouteNo="0" devices="tripinfo_3.6" vType="paperVehicle" speedFactor="1.02" vaporized=""/>
    <tripinfo id="1.2" depart="287.00" departLane="nB_0" departPos="5.10" departSpeed="0.00" departDelay="0.00" arrival="396.00" arrivalLane="Bs_0" arrivalPos="492.80" arrivalSpeed="9.81" duration="109.00" routeLength="994.90" waitingTime="0.00" waitingCount="0" stopTime="0.00" timeLoss="9.12" rerouteNo="0" devices="tripinfo_1.2" vType="paperVehicle" speedFactor="1.02" vaporized=""/>
    <tripinfo id="2.6" depart="263.00" departLane="nC_0" departPos="5.10" departSpeed="0.00" departDelay="0.00" arrival="401.00" arrivalLane="Cs_0" arrivalPos="492.80" arrivalSpeed="9.97" duration="138.00" routeLength="994.90" waitingTime="24.00" waitingCount="1" stopTime="0.00" timeLoss="38.39" rerouteNo="0" devices="tripinfo_2.6" vType="paperVehicle" speedFactor="1.12" vaporized=""/>
    <tripinfo id="2.7" depart="304.00" departLane="nC_0" departPos="5.10" departSpeed="0.00" departDelay="0.00" arrival="412.00" arrivalLane="Cs_0" arrivalPos="492.80" arrivalSpeed="8.80" duration="108.00" routeLength="994.90" waitingTime="0.00" waitingCount="0" stopTime="0.00" timeLoss="8.39" rerouteNo="0" devices="tripinfo_2.7" vType="paperVehicle" speedFactor="0.96" vaporized=""/>
    <tripinfo id="4.2" depart="16.00" departLane="wO_0" departPos="5.10" departSpeed="0.00" departDelay="0.00" arrival="418.00" arrivalLane="De_0" arrivalPos="496.00" arrivalSpeed="9.82" duration="402.00" routeLength="2994.90" waitingTime="66.00" waitingCount="3" stopTime="0.00" timeLoss="102.33" rerouteNo="0" devices="tripinfo_4.2" vType="paperVehicle" speedFactor="1.08" vaporized=""/>
    <tripinfo id="4.3" depart="21.00" departLane="wO_0" departPos="5.10" departSpeed="0.00" departDelay="0.00" arrival="420.00" arrivalLane="De_0" arrivalPos="496.00" arrivalSpeed="9.64" duration="399.00" routeLength="2994.90" waitingTime="62.00" waitingCount="3" stopTime="0.00" timeLoss="99.37" rerouteNo="0" devices="tripinfo_4.3" vType="paperVehicle" speedFactor="1.03" vaporized=""/>
    <tripinfo id="4.4" depart="24.00" departLane="wO_0" departPos="5.10" departSpeed="0.00" departDelay="2.00" arrival="422.00" arrivalLane="De_0" arrivalPos="496.00" arrivalSpeed="8.88" duration="398.00" routeLength="2994.90" waitingTime="58.00" waitingCount="3" stopTime="0.00" timeLoss="98.38" rerouteNo="0" devices="tripinfo_4.4" vType="paperVehicle" speedFactor="0.83" vaporized=""/>
    <tripinfo id="4.5" depart="27.00" departLane="wO_0" departPos="5.10" departSpeed="0.00" departDelay="2.00" arrival="424.00" arrivalLane="De_0" arrivalPos="496.00" arrivalSpeed="9.07" duration="397.00" routeLength="2994.90" waitingTime="55.00" waitingCount="3" stopTime="0.00" timeLoss="97.36" rerouteNo="0" devices="tripinfo_4.5" vType="paperVehicle" speedFactor="1.05" vaporized=""/>
    <tripinfo id="5.19" depart="302.00" departLane="nO_0" departPos="5.10" departSpeed="0.00" departDelay="0.00" arrival="424.00" arrivalLane="Os_0" arrivalPos="492.80" arrivalSpeed="9.81" duration="122.00" routeLength="994.90" waitingTime="7.00" waitingCount="1" stopTime="0.00" timeLoss="21.72" rerouteNo="0" devices="tripinfo_5.19" vType="paperVehicle" speedFactor="0.94" vaporized=""/>
    <tripinfo id="4.6" depart="48.00" departLane="wO_0" departPos="5.10" departSpeed="0.00" departDelay="0.00" arrival="426.00" arrivalLane="De_0" arrivalPos="496.00" arrivalSpeed="9.85" duration="378.00" routeLength="2994.90" waitingTime="35.00" waitingCount="3" stopTime="0.00" timeLoss="78.28" rerouteNo="0" devices="tripinfo_4.6" vType="paperVehicle" speedFactor="0.86" vaporized=""/>
    <tripinfo id="5.20" depart="310.00" departLane="nO_0" departPos="5.10" departSpeed="0.00" departDelay="0.00" arrival="426.00" arrivalLane="Os_0" arrivalPos="492.80" arrivalSpeed="9.61" duration="116.00" routeLength="994.90" waitingTime="2.00" waitingCount="1" stopTime="0.00" timeLoss="15.95" rerouteNo="0" devices="tripinfo_5.20" vType="paperVehicle" speedFactor="1.03" vaporized=""/>
    <tripinfo id="4.7" depart="51.00" departLane="wO_0" departPos="5.10" departSpeed="0.00" departDelay="2.00" arrival="432.00" arrivalLane="De_0" arrivalPos="496.00" arrivalSpeed="9.95" duration="381.00" routeLength="2994.90" waitingTime="44.00" waitingCount="3" stopTime="0.00" timeLoss="80.99" rerouteNo="0" devices="tripinfo_4.7" vType="paperVehicle" speedFactor="1.09" vaporized=""/>
    <tripinfo id="4.8" depart="54.00" departLane="wO_0" departPos="5.10" departSpeed="0.00" departDelay="0.00" arrival="434.00" arrivalLane="De_0" arrivalPos="496.00" arrivalSpeed="9.44" duration="380.00" routeLength="2994.90" waitingTime="40.00" waitingCount="2" stopTime="0.00" timeLoss="80.00" rerouteNo="0" devices="tripinfo_4.8" vType="paperVehicle" speedFactor="1.03" vaporized=""/>
    <tripinfo id="4.9" depart="57.00" departLane="wO_0" departPos="5.10" departSpeed="0.00" departDelay="1.00" arrival="436.00" arrivalLane="De_0" arrivalPos="496.00" arrivalSpeed="9.81" duration="379.00" routeLength="2994.90" waitingTime="38.00" waitingCount="2" stopTime="0.00" timeLoss="79.04" rerouteNo="0" devices="tripinfo_4.9" vType="paperVehicle" speedFactor="1.05" vaporized=""/>
    <tripinfo id="4.10" depart="61.00" departLane="wO_0" departPos="5.10" departSpeed="0.00" departDelay="0.00" arrival="439.00" arrivalLane="De_0" arrivalPos="496.00" arrivalSpeed="9.67" duration="378.00" routeLength="2994.90" waitingTime="37.00" waitingCount="2" stopTime="0.00" timeLoss="77.94" rerouteNo="0" devices="tripinfo_4.10" vType="paperVehicle" speedFactor="0.99" vaporized=""/>
    <tripinfo id="4.11" depart="64.00" departLane="wO_0" departPos="5.10" departSpeed="0.00" departDelay="0.00" arrival="441.00" arrivalLane="De_0" arrivalPos="496.00" arrivalSpeed="8.79" duration="377.00" routeLength="2994.90" waitingTime="35.00" waitingCount="2" stopTime="0.00" timeLoss="77.06" rerouteNo="0" devices="tripinfo_4.11" vType="paperVehicle" speedFactor="0.93" vaporized=""/>
    <tripinfo id="4.12" depart="80.00" departLane="wO_0" departPos="5.10" departSpeed="0.00" departDelay="0.00" arrival="443.00" arrivalLane="De_0" arrivalPos="496.00" arrivalSpeed="9.40" duration="363.00" routeLength="2994.90" waitingTime="27.00" waitingCount="2" stopTime="0.00" timeLoss="63.11" rerouteNo="0" devices="tripinfo_4.12" vType="paperVehicle" speedFactor="0.88" vaporized=""/>
    <tripinfo id="1.3" depart="337.00" departLane="nB_0" departPos="5.10" departSpeed="0.00" departDelay="0.00" arrival="445.00" arrivalLane="Bs_0" arrivalPos="492.80" arrivalSpeed="9.14" duration="108.00" routeLength="994.90" waitingTime="0.00" waitingCount="0" stopTime="0.00" timeLoss="8.44" rerouteNo="0" devices="tripinfo_1.3" vType="paperVehicle" speedFactor="1.01" vaporized=""/>
    <tripinfo id="4.13" depart="95.00" departLane="wO_0" departPos="5.10" departSpeed="0.00" departDelay="0.00" arrival="446.00" arrivalLane="De_0" arrivalPos="496.00" arrivalSpeed="9.37" duration="351.00" routeLength="2994.90" waitingTime="13.00" waitingCount="2" stopTime="0.00" timeLoss="50.65" rerouteNo="0" devices="tripinfo_4.13" vType="paperVehicle" speedFactor="1.16" vaporized=""/>
    <tripinfo id="4.14" depart="98.00" departLane="wO_0" departPos="5.10" departSpeed="0.00" departDelay="1.00" arrival="448.00" arrivalLane="De_0" arrivalPos="496.00" arrivalSpeed="9.60" duration="350.00" routeLength="2994.90" waitingTime="10.00" waitingCount="2" stopTime="0.00" timeLoss="49.76" rerouteNo="0" devices="tripinfo_4.14" vType="paperVehicle" speedFactor="1.02" vaporized=""/>
    <tripinfo id="1.4" depart="340.00" departLane="nB_0" departPos="5.10" departSpeed="0.00" departDelay="2.00" arrival="449.00" arrivalLane="Bs_0" arrivalPos="492.80" arrivalSpeed="9.68" duration="109.00" routeLength="994.90" waitingTime="0.00" waitingCount="0" stopTime="0.00" timeLoss="9.36" rerouteNo="0" devices="tripinfo_1.4" vType="paperVehicle" speedFactor="1.09" vaporized=""/>
    <tripinfo id="3.7" depart="344.00" departLane="nD_0" departPos="5.10" departSpeed="0.00" departDelay="0.00" arrival="454.00" arrivalLane="Ds_0" arrivalPos="492.80" arrivalSpeed="9.51" duration="110.00" routeLength="994.90" waitingTime="0.00" waitingCount="0" stopTime="0.00" timeLoss="9.63" rerouteNo="0" devices="tripinfo_3.7" vType="paperVehicle" speedFactor="1.00" vaporized=""/>
    <tripinfo id="0.4" depart="342.00" departLane="nA_0" departPos="5.10" departSpeed="0.00" departDelay="0.00" arrival="459.00" arrivalLane="As_0" arrivalPos="492.80" arrivalSpeed="9.67" duration="117.00" routeLength="994.90" waitingTime="3.00" waitingCount="1" stopTime="0.00" timeLoss="16.91" rerouteNo="0" devices="tripinfo_0.4" vType="paperVehicle" speedFactor="1.03" vaporized=""/>
    <tripinfo id="3.8" depart="360.00" departLane="nD_0" departPos="5.10" departSpeed="0.00" departDelay="0.00" arrival="469.00" arrivalLane="Ds_0" arrivalPos="492.80" arrivalSpeed="9.76" duration="109.00" routeLength="994.90" waitingTime="0.00" waitingCount="0" stopTime="0.00" timeLoss="9.25" rerouteNo="0" devices="tripinfo_3.8" vType="paperVehicle" speedFactor="0.98" vaporized=""/>
    <tripinfo id="5.21" depart="353.00" departLane="nO_0" departPos="5.10" departSpeed="0.00" departDelay="0.00" arrival="474.00" arrivalLane="Os_0" arrivalPos="492.80" arrivalSpeed="9.92" duration="121.00" routeLength="994.90" waitingTime="8.00" waitingCount="1" stopTime="0.00" timeLoss="20.54" rerouteNo="0" devices="tripinfo_5.21" vType="paperVehicle" speedFactor="0.97" vaporized=""/>
    <tripinfo id="3.9" depart="368.00" departLane="nD_0" departPos="5.10" departSpeed="0.00" departDelay="0.00" arrival="476.00" arrivalLane="Ds_0" arrivalPos="492.80" arrivalSpeed="9.43" duration="108.00" routeLength="994.90" waitingTime="0.00" waitingCount="0" stopTime="0.00" timeLoss="8.34" rerouteNo="0" devices="tripinfo_3.9" vType="paperVehicle" speedFactor="1.00" vaporized=""/>
    <tripinfo id="5.22" depart="372.00" departLane="nO_0" departPos="5.10" departSpeed="0.00" departDelay="0.00" arrival="481.00" arrivalLane="Os_0" arrivalPos="492.80" arrivalSpeed="9.79" duration="109.00" routeLength="994.90" waitingTime="0.00" waitingCount="0" stopTime="0.00" timeLoss="8.74" rerouteNo="0" devices="tripinfo_5.22" vType="paperVehicle" speedFactor="1.04" vaporized=""/>
    <tripinfo id="4.15" depart="112.00" departLane="wO_0" departPos="5.10" departSpeed="0.00" departDelay="0.00" arrival="484.00" arrivalLane="De_0" arrivalPos="496.00" arrivalSpeed="8.75" duration="372.00" routeLength="2994.90" waitingTime="36.00" waitingCount="2" stopTime="0.00" timeLoss="72.42" rerouteNo="0" devices="tripinfo_4.15" vType="paperVehicle" speedFactor="0.87" vaporized=""/>
    <tripinfo id="0.5" depart="377.00" departLane="nA_0" departPos="5.10" departSpeed="0.00" departDelay="0.00" arrival="486.00" arrivalLane="As_0" arrivalPos="492.80" arrivalSpeed="8.75" duration="109.00" routeLength="994.90" waitingTime="0.00" waitingCount="0" stopTime="0.00" timeLoss="9.03" rerouteNo="0" devices="tripinfo_0.5" vType="paperVehicle" speedFactor="1.02" vaporized=""/>
    <tripinfo id="4.16" depart="120.00" departLane="wO_0" departPos="5.10" departSpeed="0.00" departDelay="0.00" arrival="487.00" arrivalLane="De_0" arrivalPos="496.00" arrivalSpeed="9.45" duration="367.00" routeLength="2994.90" waitingTime="27.00" waitingCount="2" stopTime="0.00" timeLoss="67.12" rerouteNo="0" devices="tripinfo_4.16" vType="paperVehicle" speedFactor="0.92" vaporized=""/>
    <tripinfo id="2.8" depart="379.00" departLane="nC_0" departPos="5.10" departSpeed="0.00" departDelay="0.00" arrival="488.00" arrivalLane="Cs_0" arrivalPos="492.80" arrivalSpeed="9.42" duration="109.00" routeLength="994.90" waitingTime="0.00" waitingCount="0" stopTime="0.00" timeLoss="8.69" rerouteNo="0" devices="tripinfo_2.8" vType="paperVehicle" speedFactor="0.83" vaporized=""/>
    <tripinfo id="4.17" depart="131.00" departLane="wO_0" departPos="5.10" departSpeed="0.00" departDelay="0.00" arrival="489.00" arrivalLane="De_0" arrivalPos="496.00" arrivalSpeed="9.18" duration="358.00" routeLength="2994.90" waitingTime="21.00" waitingCount="2" stopTime="0.00" timeLoss="58.49" rerouteNo="0" devices="tripinfo_4.17" vType="paperVehicle" speedFactor="1.13" vaporized=""/>
    <tripinfo id="5.23" depart="383.00" departLane="nO_0" departPos="5.10" departSpeed="0.00" departDelay="0.00" arrival="491.00" arrivalLane="Os_0" arrivalPos="492.80" arrivalSpeed="9.52" duration="108.00" routeLength="994.90" waitingTime="0.00" waitingCount="0" stopTime="0.00" timeLoss="8.44" rerouteNo="0" devices="tripinfo_5.23" vType="paperVehicle" speedFactor="1.06" vaporized=""/>
    <tripinfo id="4.18" depart="134.00" departLane="wO_0" departPos="5.10" departSpeed="0.00" departDelay="0.00" arrival="492.00" arrivalLane="De_0" arrivalPos="496.00" arrivalSpeed="8.95" duration="358.00" routeLength="2994.90" waitingTime="19.00" waitingCount="2" stopTime="0.00" timeLoss="57.68" rerouteNo="0" devices="tripinfo_4.18" vType="paperVehicle" speedFactor="1.18" vaporized=""/>
    <tripinfo id="2.9" depart="383.00" departLane="nC_0" departPos="5.10" departSpeed="0.00" departDelay="0.00" arrival="492.00" arrivalLane="Cs_0" arrivalPos="492.80" arrivalSpeed="9.06" duration="109.00" routeLength="994.90" waitingTime="0.00" waitingCount="0" stopTime="0.00" timeLoss="9.51" rerouteNo="0" devices="tripinfo_2.9" vType="paperVehicle" speedFactor="1.09" vaporized=""/>